LAMMPS data file via write_data, version 5 Jun 2019, timestep = 0

972 atoms
2 atom types

0.0000000000000000e+00 1.2222432449093301e+01 xlo xhi
0.0000000000000000e+00 2.4594111205562101e+01 ylo yhi
0.0000000000000000e+00 2.5048498615328100e+01 zlo zhi
-1.7089726947034601e-04 7.0768931771322802e-05 -1.7443228011322201e-05 xy xz yz

Masses

1 1.008
2 15.9994

Atoms # atomic

650 1 3.3561521270284307e+00 8.8254708508407411e+00 7.4935824928525196e-01 0 0 1
653 1 5.7123246875187546e+00 1.0519322860031041e+01 1.8910192446415455e-01 0 0 1
671 1 4.0624514057055743e+00 1.1967599891908783e+01 1.3538944085104712e+00 0 0 1
677 2 2.9760685242674434e+00 9.3257379781028078e+00 8.5916968328088143e-03 0 0 1
866 1 3.3562217804636516e+00 6.2743746323025484e-01 7.4935504473037795e-01 0 1 1
869 1 5.7123873918445627e+00 2.3212944309845702e+00 1.8910711618008558e-01 0 1 1
887 1 4.0625113112909998e+00 3.7695720694775345e+00 1.3538987963692661e+00 0 1 1
893 2 2.9761347589520457e+00 1.1277072717616643e+00 8.5920152428281774e-03 0 1 1
686 1 7.4302992501462644e+00 8.8254723746155950e+00 7.4935895587877499e-01 0 0 1
689 1 9.7864698130843948e+00 1.0519326086388929e+01 1.8910234785887406e-01 0 0 1
707 1 8.1365978689803971e+00 1.1967600881581902e+01 1.3538972612642715e+00 0 0 1
713 2 7.0502151814765996e+00 9.3257392778019703e+00 8.5924540311338605e-03 0 0 1
902 1 7.4303656251176449e+00 6.2743813862139364e-01 7.4935458493958351e-01 0 1 1
905 1 9.7865313701735470e+00 2.3212936111504896e+00 1.8910584636666636e-01 0 1 1
923 1 8.1366565007467671e+00 3.7695735479769916e+00 1.3538937295964080e+00 0 1 1
104 2 1.1285051392034262e+01 7.0710593412719280e+00 4.1833469450400838e+00 0 0 0
722 1 1.1504442772765726e+01 8.8254734366096930e+00 7.4935840699458611e-01 0 0 1
725 1 1.6381811798130848e+00 1.0519324300371496e+01 1.8910181465207074e-01 1 0 1
743 1 1.2210743119338854e+01 1.1967602256336210e+01 1.3538932847658314e+00 0 0 1
94 1 2.0503932883907381e+00 4.4291953612497155e+00 5.5286436522956866e+00 1 0 0
938 1 1.1504508213801488e+01 6.2743513391339667e-01 7.4935398917516038e-01 0 1 1
941 1 1.6382425859593484e+00 2.3212923504259262e+00 1.8910531060069502e-01 1 1 1
959 1 1.2210800622219139e+01 3.7695705281433183e+00 1.3538950550968147e+00 0 1 1
76 1 4.0050899226429471e-01 5.8774730620291473e+00 4.3638591513908134e+00 1 0 0
649 1 2.5858059314007789e+00 1.0107750024072596e+01 3.8535455417474562e+00 0 0 1
658 1 5.6222189252086370e+00 9.6488564133287049e+00 2.7728537095320087e+00 0 0 1
667 1 2.9472917165894734e+00 1.1686111793715591e+01 2.4055554297263901e+00 0 0 1
676 2 4.6141573673543244e+00 8.2844212247165050e+00 2.1122863407210088e+00 0 0 1
682 2 5.9681976195080857e+00 1.0429072544080423e+01 3.2464781692174394e+00 0 0 1
865 1 2.5858697416555185e+00 1.9097139316749823e+00 3.8535385503545760e+00 0 1 1
874 1 5.6222855594880015e+00 1.4508219843255339e+00 2.7728442957891448e+00 0 1 1
883 1 2.9473500866345681e+00 3.4880799110238172e+00 2.4055568756811971e+00 0 1 1
892 2 4.6142289877684801e+00 8.6383969538779068e-02 2.1122776895915041e+00 0 1 1
898 2 5.9682615485832882e+00 2.2310386302339982e+00 3.2464699546217211e+00 0 1 1
685 1 6.6599511744256459e+00 1.0107748912894362e+01 3.8535466684310604e+00 0 0 1
694 1 9.6963646994686670e+00 9.6488581291209208e+00 2.7728525131211135e+00 0 0 1
703 1 7.0214381797141554e+00 1.1686111697477768e+01 2.4055581182998726e+00 0 0 1
712 2 8.6883037817254252e+00 8.2844217924746921e+00 2.1122863252468371e+00 0 0 1
718 2 1.0042342965215726e+01 1.0429074839300629e+01 3.2464762837262477e+00 0 0 1
901 1 6.6600157566611076e+00 1.9097161324748455e+00 3.8535384738475864e+00 0 1 1
910 1 9.6964284877735309e+00 1.4508206923209952e+00 2.7728459984158063e+00 0 1 1
919 1 7.0214962455223864e+00 3.4880813764834318e+00 2.4055527656100786e+00 0 1 1
928 2 8.6883741044843461e+00 8.6382597466568706e-02 2.1122768971105739e+00 0 1 1
934 2 1.0042403605853773e+01 2.2310375336265875e+00 3.2464720080315290e+00 0 1 1
721 1 1.0734096388598465e+01 1.0107751999773265e+01 3.8535453894581413e+00 0 0 1
730 1 1.5480738783969417e+00 9.6488560788836004e+00 2.7728528488537361e+00 1 0 1
739 1 1.1095583440959309e+01 1.1686113526625107e+01 2.4055541731351631e+00 0 0 1
748 2 5.4001392983945917e-01 8.2844206325961771e+00 2.1122854515050200e+00 1 0 1
754 2 1.8940522721057973e+00 1.0429072769916552e+01 3.2464766275765924e+00 1 0 1
937 1 1.0734158247229214e+01 1.9097156117792728e+00 3.8535403908562613e+00 0 1 1
946 1 1.5481389620615951e+00 1.4508203039435523e+00 2.7728447151444477e+00 1 1 1
955 1 1.1095640701929437e+01 3.4880788323883491e+00 2.4055546803761012e+00 0 1 1
964 2 5.4008403957966178e-01 8.6381842870257713e-02 2.1122764169292356e+00 1 1 1
970 2 1.8941143681883914e+00 2.2310365602720603e+00 3.2464714594288360e+00 1 1 1
9 1 3.5851447442603157e+00 1.0846959421846675e+01 5.5758463641961891e+00 0 0 0
13 1 4.6228793352209960e+00 1.0388065744075151e+01 4.4951563507390686e+00 0 0 0
18 1 4.9843920005328837e+00 8.8097083683939221e+00 5.9431478337272550e+00 0 0 0
25 2 3.9311274804537093e+00 1.0066742320745613e+01 5.1022270680143000e+00 0 0 0
75 1 1.0904966610536500e+01 7.5713273579711551e+00 4.9241126076902866e+00 0 0 0
225 1 3.5852114393267103e+00 2.6489207627660205e+00 5.5758368283873541e+00 0 1 0
229 1 4.6229453918093064e+00 2.1900282682704577e+00 4.4951454874589194e+00 0 1 0
234 1 4.9844599823840916e+00 6.1166782720340407e-01 5.9431339563727104e+00 0 1 0
241 2 3.9311936032470340e+00 1.8687043444793296e+00 5.1022162666585800e+00 0 1 0
252 2 2.5771316169657283e+00 4.0133528944939645e+00 6.2364039897334846e+00 0 1 0
45 1 7.6592919045137640e+00 1.0846959126475706e+01 5.5758463933263327e+00 0 0 0
49 1 8.6970255859085626e+00 1.0388065600980765e+01 4.4951557418080901e+00 0 0 0
54 1 9.0585386071358833e+00 8.8097066668258091e+00 5.9431480870752296e+00 0 0 0
61 2 8.0052745079771821e+00 1.0066741932207236e+01 5.1022272059753888e+00 0 0 0
68 2 7.2109069007780864e+00 7.0710616991348383e+00 4.1833475487324110e+00 0 0 0
261 1 7.6593549164792041e+00 2.6489211265053667e+00 5.5758390084728324e+00 0 1 0
265 1 8.6970886068649662e+00 2.1900271783808591e+00 4.4951480052865955e+00 0 1 0
270 1 9.0586032259595761e+00 6.1166767563082247e-01 5.9431363816290208e+00 0 1 0
277 2 8.0053363871955074e+00 1.8687041888317104e+00 5.1022187988200010e+00 0 1 0
288 2 6.6512772680236312e+00 4.0133549006079408e+00 6.2364059839511654e+00 0 1 0
81 1 1.1733435999279312e+01 1.0846959947945166e+01 5.5758467868125345e+00 0 0 0
85 1 5.4873673951087210e-01 1.0388065253391234e+01 4.4951558410981498e+00 1 0 0
90 1 9.1024961725950515e-01 8.8097073937405366e+00 5.9431491876787357e+00 1 0 0
97 2 1.2079417771468949e+01 1.0066742445099365e+01 5.1022274573784152e+00 0 0 0
58 1 1.0198682483912766e+01 4.4291972361897987e+00 5.5286435549276769e+00 0 0 0
297 1 1.1733498906364421e+01 2.6489212065806171e+00 5.5758385286606567e+00 0 1 0
301 1 5.4879959937437550e-01 2.1900268883147311e+00 4.4951471165088082e+00 1 1 0
306 1 9.1031425326578530e-01 6.1166699153352355e-01 5.9431369351689343e+00 1 1 0
313 2 1.2079480199492316e+01 1.8687041142996377e+00 5.1022184851803667e+00 0 1 0
40 1 8.5487973847921044e+00 5.8774743524581003e+00 4.3638588495866157e+00 0 0 0
656 1 2.5276884853478321e+00 5.5498407946364638e+00 1.4010946136251308e+00 0 0 1
660 1 5.5640966819442994e+00 6.0087322547780788e+00 3.2040293492599109e-01 0 0 1
665 1 5.2025895354995981e+00 7.5870945923171202e+00 1.7683925637486098e+00 0 0 1
674 2 3.5357762466808209e+00 4.1854123074635377e+00 2.0616629228593024e+00 0 0 1
679 2 2.1817046054034757e+00 6.3300556805515322e+00 9.2747279119188553e-01 0 0 1
692 1 6.6018336806626419e+00 5.5498422444854816e+00 1.4010930471530940e+00 0 0 1
696 1 9.6382412330471983e+00 6.0087320144491718e+00 3.2040391510521615e-01 0 0 1
701 1 9.2767356347867960e+00 7.5870946861686814e+00 1.7683930078173662e+00 0 0 1
710 2 7.6099219096674648e+00 4.1854139056978843e+00 2.0616582124681164e+00 0 0 1
715 2 6.2558486503057686e+00 6.3300574856530867e+00 9.2747257818315965e-01 0 0 1
728 1 1.0675977296290732e+01 5.5498400169781652e+00 1.4010944256850479e+00 0 0 1
732 1 1.4899525220080081e+00 6.0087306862373051e+00 3.2040308123292721e-01 1 0 1
737 1 1.1284458966483237e+00 7.5870939009800429e+00 1.7683915528092287e+00 1 0 1
746 2 1.1684066525521766e+01 4.1854110333841188e+00 2.0616598145526748e+00 0 0 1
751 2 1.0329993659782868e+01 6.3300557891767300e+00 9.2747390066670488e-01 0 0 1
655 1 2.4375769004722518e+00 6.4202984921571193e+00 3.9848596497528028e+00 0 0 1
664 1 4.7937580964175472e+00 4.7264601523652647e+00 3.4245912696002141e+00 0 0 1
669 1 4.0874298535157108e+00 7.8685778497442662e+00 2.8200545906098111e+00 0 0 1
683 2 5.1738400377839371e+00 5.2267170938976681e+00 4.1653662906873441e+00 0 0 1
691 1 6.5117211229277920e+00 6.4203004250312441e+00 3.9848587452366178e+00 0 0 1
700 1 8.8679014346550389e+00 4.7264608196854105e+00 3.4245870961841605e+00 0 0 1
705 1 8.1615756509309101e+00 7.8685788282527609e+00 2.8200543766219588e+00 0 0 1
719 2 9.2479836717067929e+00 5.2267163012320834e+00 4.1653630716437808e+00 0 0 1
727 1 1.0585865093146436e+01 6.4202987574030459e+00 3.9848576569019900e+00 0 0 1
736 1 7.1961399070189824e-01 4.7264590945542295e+00 3.4245883429025414e+00 1 0 1
741 1 1.3286200697527688e-02 7.8685771031349985e+00 2.8200534758187419e+00 1 0 1
755 2 1.0996956983893718e+00 5.2267151711286095e+00 4.1653641543803746e+00 1 0 1
3 1 2.7566771548113223e+00 7.5713280604769286e+00 4.9241139631388799e+00 0 0 0
4 1 4.4746532032059481e+00 5.8774749858443727e+00 4.3638609713882568e+00 0 0 0
22 1 6.1245389059174427e+00 4.4291981703892054e+00 5.5286461899323083e+00 0 0 0
32 2 3.1367624136778351e+00 7.0710600238645398e+00 4.1833485510556319e+00 0 0 0
39 1 6.8308213757068241e+00 7.5713299827212177e+00 4.9241126363501158e+00 0 0 0
27 2 5.5728275818637494e+00 8.1123827839774734e+00 6.2870378628543113e+00 0 0 0
99 2 1.4986846146295578e+00 8.1123816202158494e+00 6.2870397165424317e+00 1 0 0
280 2 8.6883994588664653e+00 8.6372335816735452e-02 1.0461770969037147e+01 0 1 0
324 2 1.0725420458155345e+01 4.0133548859567449e+00 6.2364041732361990e+00 0 1 0
108 2 1.0725363522762688e+01 1.2211394066890646e+01 6.2364112510639789e+00 0 0 0
2 1 3.3561825105975163e+00 8.8254665545738931e+00 9.0988607050377706e+00 0 0 0
5 1 5.7123514154341875e+00 1.0519321677965868e+01 8.5386053146304501e+00 0 0 0
23 1 4.0624806459569509e+00 1.1967600803795818e+01 9.7033947133546352e+00 0 0 0
29 2 2.9760964173330056e+00 9.3257349911652465e+00 8.3580961631960182e+00 0 0 0
218 1 3.3562469431251540e+00 6.2742530662390528e-01 9.0988484903272937e+00 0 1 0
221 1 5.7124133957236944e+00 2.3212815091643377e+00 8.5385986462235000e+00 0 1 0
239 1 4.0625400259568760e+00 3.7695593793260036e+00 9.7033904683525076e+00 0 1 0
245 2 2.9761602207837994e+00 1.1276948501920274e+00 8.3580851474293585e+00 0 1 0
38 1 7.4303266638494101e+00 8.8254670554248236e+00 9.0988587571440647e+00 0 0 0
41 1 9.7864959215554812e+00 1.0519322172796796e+01 8.5386056575518925e+00 0 0 0
59 1 8.1366236183817335e+00 1.1967599213701259e+01 9.7033958593738170e+00 0 0 0
65 2 7.0502405720339416e+00 9.3257359526908044e+00 8.3580945725875040e+00 0 0 0
254 1 7.4303908319593654e+00 6.2742574709511789e-01 9.0988466236121948e+00 0 1 0
257 1 9.7865581795203642e+00 2.3212816632547653e+00 8.5385983973356154e+00 0 1 0
275 1 8.1366855278371890e+00 3.7695610502602710e+00 9.7033874276167236e+00 0 1 0
281 2 7.0503047832757977e+00 1.1276958946792290e+00 8.3580834068928400e+00 0 1 0
74 1 1.1504471827774420e+01 8.8254666970045790e+00 9.0988589605795536e+00 0 0 0
77 1 1.6382079797096973e+00 1.0519322102195899e+01 8.5386077306097032e+00 1 0 0
95 1 1.2210767794326376e+01 1.1967599061848491e+01 9.7033961706373848e+00 0 0 0
101 2 1.1124385605001395e+01 9.3257359218500131e+00 8.3580950702714549e+00 0 0 0
290 1 1.1504534789434192e+01 6.2742571809330971e-01 9.0988473140231960e+00 0 1 0
293 1 1.6382693176924084e+00 2.3212808204671531e+00 8.5385999531373056e+00 1 1 0
311 1 1.2210827795203437e+01 3.7695596347264195e+00 9.7033917279083095e+00 0 1 0
317 2 1.1124448603274645e+01 1.1276959127366739e+00 8.3580841710245171e+00 0 1 0
1 1 2.5858363255519357e+00 1.0107744839390062e+01 1.2203041190690861e+01 0 0 0
10 1 5.6222474349046081e+00 9.6488500801541015e+00 1.1122348902306513e+01 0 0 0
19 1 2.9473210414646092e+00 1.1686110938178558e+01 1.0755054890982052e+01 0 0 0
28 2 4.6141867474006721e+00 8.2844122244340603e+00 1.0461783737039937e+01 0 0 0
34 2 5.9682249011457644e+00 1.0429066660671399e+01 1.1595973446659690e+01 0 0 0
217 1 2.5858981466926840e+00 1.9097016924367654e+00 1.2203034324687433e+01 0 1 0
226 1 5.6223108118645513e+00 1.4508107123323855e+00 1.1122339664772028e+01 0 1 0
235 1 2.9473801337203378e+00 3.4880675952972955e+00 1.0755049990470283e+01 0 1 0
244 2 4.6142548118919464e+00 8.6372898411864935e-02 1.0461772018161538e+01 0 1 0
250 2 5.9682873939819245e+00 2.2310271123159828e+00 1.1595965344626469e+01 0 1 0
37 1 6.6599791090279474e+00 1.0107743933377886e+01 1.2203041841607423e+01 0 0 0
46 1 9.6963912157432350e+00 9.6488505575960062e+00 1.1122347508372815e+01 0 0 0
55 1 7.0214636222638349e+00 1.1686109398594290e+01 1.0755055883317818e+01 0 0 0
64 2 8.6883331161808748e+00 8.2844128850674537e+00 1.0461780994336761e+01 0 0 0
70 2 1.0042368076537663e+01 1.0429067070253071e+01 1.1595972705504080e+01 0 0 0
253 1 6.6600416306044972e+00 1.9097040757819705e+00 1.2203033382378161e+01 0 1 0
262 1 9.6964568517845837e+00 1.4508097326985085e+00 1.1122340734648422e+01 0 1 0
271 1 7.0215254473633699e+00 3.4880686398090170e+00 1.0755046709068317e+01 0 1 0
105 2 1.4466207530342615e-01 5.9677174849251493e+00 7.4212219022948949e+00 1 0 0
286 2 1.0042432433122464e+01 2.2310259598321589e+00 1.1595967335284005e+01 0 1 0
73 1 1.0734122711939881e+01 1.0107744442872576e+01 1.2203040636108874e+01 0 0 0
82 1 1.5481056864429033e+00 9.6488501929776689e+00 1.1122347691635078e+01 1 0 0
91 1 1.1095607234125865e+01 1.1686109365757906e+01 1.0755055742448766e+01 0 0 0
100 2 5.4004578286810212e-01 8.2844122250693601e+00 1.0461781390677208e+01 1 0 0
106 2 1.8940820871898012e+00 1.0429067043594378e+01 1.1595972542177002e+01 1 0 0
289 1 1.0734186864576508e+01 1.9097032166487280e+00 1.2203035372741537e+01 0 1 0
298 1 1.5481677656349775e+00 1.4508086601228261e+00 1.1122339708370630e+01 1 1 0
307 1 1.1095667750219947e+01 3.4880680201629795e+00 1.0755051298178625e+01 0 1 0
316 2 5.4011127904312006e-01 8.6372612782021796e-02 1.0461769575183274e+01 1 1 0
322 2 1.8941436304343982e+00 2.2310246631679860e+00 1.1595966544248419e+01 1 1 0
6 1 3.6752823946291033e+00 9.9764957443258275e+00 8.1596064588052322e+00 0 0 0
14 1 5.3932455799097569e+00 1.1670338670392718e+01 7.5993373218826772e+00 0 0 0
24 1 2.0254160089953386e+00 8.5282243638460908e+00 6.9948053250036653e+00 0 0 0
30 2 5.0131642794411837e+00 1.1170079402264026e+01 8.3401112736834762e+00 0 0 0
222 1 3.6753453531436135e+00 1.7784571508058908e+00 8.1595972906642142e+00 0 1 0
230 1 5.3933080861694593e+00 3.4722994509312879e+00 7.5993321105950145e+00 0 1 0
240 1 2.0254812591400375e+00 3.3018435912521366e-01 6.9947921639045632e+00 0 1 0
246 2 5.0132265841105674e+00 2.9720398491434015e+00 8.3401058598963083e+00 0 1 0
42 1 7.7494264900391805e+00 9.9764969468617597e+00 8.1596054505636548e+00 0 0 0
50 1 9.4673905712425626e+00 1.1670339871002405e+01 7.5993384156114097e+00 0 0 0
60 1 6.0995591185014764e+00 8.5282255515588155e+00 6.9948032573583330e+00 0 0 0
66 2 9.0873089096317372e+00 1.1170080039925967e+01 8.3401118221886605e+00 0 0 0
258 1 7.7494902862382968e+00 1.7784579874574624e+00 8.1595961297355082e+00 0 1 0
266 1 9.4674541088691893e+00 3.4722991724194201e+00 7.5993307498372582e+00 0 1 0
276 1 6.0996270026218129e+00 3.3018552934639966e-01 6.9947893045065355e+00 0 1 0
282 2 9.0873719098356247e+00 2.9720403669274664e+00 8.3401047613153310e+00 0 1 0
78 1 1.1823571424539701e+01 9.9764971731418317e+00 8.1596064131484169e+00 0 0 0
86 1 1.3191029464365198e+00 1.1670339375451706e+01 7.5993396168398606e+00 1 0 0
96 1 1.0173705735403544e+01 8.5282243623408203e+00 6.9948035307749832e+00 0 0 0
102 2 9.3902142424756119e-01 1.1170080424541373e+01 8.3401137337465450e+00 1 0 0
294 1 1.1823634255935140e+01 1.7784580005229897e+00 8.1595972230215601e+00 0 1 0
302 1 1.3191644270361591e+00 3.4722978135280078e+00 7.5993318861551629e+00 1 1 0
312 1 1.0173771126869617e+01 3.3018549137204500e-01 6.9947907659705351e+00 0 1 0
318 2 9.3908288960091657e-01 2.9720393766589290e+00 8.3401064386752761e+00 1 1 0
8 1 2.5277176569917703e+00 5.5498290888326185e+00 9.7505898505993276e+00 0 0 0
12 1 5.5641252391635714e+00 6.0087224192216802e+00 8.6698996217713251e+00 0 0 0
17 1 5.2026185371010403e+00 7.5870856355858223e+00 1.0117889363929875e+01 0 0 0
26 2 3.5358058841450779e+00 4.1853998775470274e+00 1.0411155235311371e+01 0 0 0
31 2 2.1817339676063954e+00 6.3300446040964129e+00 9.2769688932955869e+00 0 0 0
44 1 6.6018619853074041e+00 5.5498312817383395e+00 9.7505896408335850e+00 0 0 0
48 1 9.6382706197274590e+00 6.0087210000143410e+00 8.6699007664300325e+00 0 0 0
53 1 9.2767652551602229e+00 7.5870861567013383e+00 1.0117887440141741e+01 0 0 0
62 2 7.6099511023147048e+00 4.1854011394649788e+00 1.0411152283397886e+01 0 0 0
67 2 6.2558772374871099e+00 6.3300469247997979e+00 9.2769696670000563e+00 0 0 0
80 1 1.0676006814780170e+01 5.5498299449962483e+00 9.7505915657729183e+00 0 0 0
84 1 1.4899811386323665e+00 6.0087205551759046e+00 8.6698994610371827e+00 1 0 0
89 1 1.1284775862135930e+00 7.5870856176190955e+00 1.0117887032561693e+01 1 0 0
98 2 1.1684093812905344e+01 4.1854001433341690e+00 1.0411156524258045e+01 0 0 0
103 2 1.0330023281479770e+01 6.3300453196665236e+00 9.2769702199745510e+00 0 0 0
7 1 2.4376049912321820e+00 6.4202866762633661e+00 1.2334353169518799e+01 0 0 0
16 1 4.7937876646120312e+00 4.7264493408697410e+00 1.1774082791158909e+01 0 0 0
21 1 4.0874588016169913e+00 7.8685681684658837e+00 1.1169551320955982e+01 0 0 0
35 2 5.1738694159870233e+00 5.2267065921815625e+00 1.2514857739693614e+01 0 0 0
43 1 6.5117507007843258e+00 6.4202899642011282e+00 1.2334351120268586e+01 0 0 0
52 1 8.8679304407627857e+00 4.7264495403195719e+00 1.1774080025936843e+01 0 0 0
57 1 8.1616051772729605e+00 7.8685693199137150e+00 1.1169548854228374e+01 0 0 0
71 2 9.2480128492450184e+00 5.2267057519497664e+00 1.2514855411772773e+01 0 0 0
79 1 1.0585895107501123e+01 6.4202882174227582e+00 1.2334350479789665e+01 0 0 0
88 1 7.1964102003604491e-01 4.7264476966634614e+00 1.1774084462112016e+01 1 0 0
93 1 1.3318047293469304e-02 7.8685682831160788e+00 1.1169549155158428e+01 1 0 0
107 2 1.0997234581827997e+00 5.2267038082743040e+00 1.2514859887094667e+01 1 0 0
11 1 4.5647793810424337e+00 6.7479378436592103e+00 6.9475996000796698e+00 0 0 0
15 1 3.5270513783858264e+00 6.2890354544358704e+00 8.0282914538914021e+00 0 0 0
20 1 3.1655608296102864e+00 4.7106830163618598e+00 6.5802972085077753e+00 0 0 0
92 1 1.1313849690190747e+01 4.7106848660690535e+00 6.5802977106522018e+00 0 0 0
33 2 4.2188056063416042e+00 5.9677173755195589e+00 7.4212204859635937e+00 0 0 0
47 1 8.6389267822989506e+00 6.7479380572730605e+00 6.9476011680930343e+00 0 0 0
51 1 7.6011972802779546e+00 6.2890383076816034e+00 8.0282926204958986e+00 0 0 0
56 1 7.2397068603320962e+00 4.7106844502583742e+00 6.5802997669126979e+00 0 0 0
63 2 9.6469740942918580e+00 8.1123811820173568e+00 6.2870383974783417e+00 0 0 0
69 2 8.2929514552509129e+00 5.9677185236314383e+00 7.4212225874673603e+00 0 0 0
83 1 4.9063677705363101e-01 6.7479379360408700e+00 6.9476015513332143e+00 1 0 0
87 1 1.1675340896822453e+01 6.2890358541025169e+00 8.0282934349787478e+00 0 0 0
72 2 6.6512178293729587e+00 1.2211393266355968e+01 6.2364096577866128e+00 0 0 0
36 2 2.5770714363156526e+00 1.2211393061891934e+01 6.2364097981794746e+00 0 0 0
929 2 7.0502785258837024e+00 1.1277084612393882e+00 8.5919800445624413e-03 0 1 1
749 2 1.1124358755741476e+01 9.3257409997793133e+00 8.5922996544978824e-03 0 0 1
965 2 1.1124421375940969e+01 1.1277054415038883e+00 8.5912506701741331e-03 0 1 1
326 1 3.3562071160859546e+00 8.8254577889716046e+00 1.7448351618268489e+01 0 0 0
329 1 5.7123766990374802e+00 1.0519312498636692e+01 1.6888097164406823e+01 0 0 0
347 1 4.0625037576428067e+00 1.1967590700855869e+01 1.8052886964743212e+01 0 0 0
353 2 2.9761216655104024e+00 9.3257263735168241e+00 1.6707586924522477e+01 0 0 0
542 1 3.3562714962675972e+00 6.2742214456853107e-01 1.7448353561553208e+01 0 1 0
545 1 5.7124383781472474e+00 2.3212784255780150e+00 1.6888100568515267e+01 0 1 0
563 1 4.0625650003469103e+00 3.7695572959264507e+00 1.8052890568420487e+01 0 1 0
569 2 2.9761856121736763e+00 1.1276905721185326e+00 1.6707589040401800e+01 0 1 0
362 1 7.4303517970163844e+00 8.8254596585401206e+00 1.7448351883242562e+01 0 0 0
365 1 9.7865218993031942e+00 1.0519313644950682e+01 1.6888098061953688e+01 0 0 0
383 1 8.1366476136401023e+00 1.1967590348040234e+01 1.8052888693502130e+01 0 0 0
389 2 7.0502667823611276e+00 9.3257273410975419e+00 1.6707586348534321e+01 0 0 0
578 1 7.4304129624322162e+00 6.2742438406279966e-01 1.7448352561698609e+01 0 1 0
581 1 9.7865833585839361e+00 2.3212753189087882e+00 1.6888098902254558e+01 0 1 0
599 1 8.1367103745036715e+00 3.7695544651770394e+00 1.8052889948314178e+01 0 1 0
605 2 7.0503282581703912e+00 1.1276928531435251e+00 1.6707587523892823e+01 0 1 0
398 1 1.1504496424134860e+01 8.8254602131158375e+00 1.7448351717544103e+01 0 0 0
401 1 1.6382331717645897e+00 1.0519313119869485e+01 1.6888098068869631e+01 1 0 0
419 1 1.2210792977647994e+01 1.1967589961246077e+01 1.8052889209020037e+01 0 0 0
425 2 1.1124410885072313e+01 9.3257282628643097e+00 1.6707586607196451e+01 0 0 0
614 1 1.1504557446938712e+01 6.2742078427178982e-01 1.7448353275414149e+01 0 1 0
617 1 1.6382943550073834e+00 2.3212758838125578e+00 1.6888101441414367e+01 1 1 0
635 1 1.2210851837823771e+01 3.7695552589024235e+00 1.8052890627951104e+01 0 1 0
641 2 1.1124473163463238e+01 1.1276890542588738e+00 1.6707587872161834e+01 0 1 0
333 1 3.5851753278101053e+00 1.0846951599099429e+01 1.3925340501409975e+01 0 0 0
337 1 4.6229092707418014e+00 1.0388056795325117e+01 1.2844650231168023e+01 0 0 0
342 1 4.9844197471085492e+00 8.8096969862135257e+00 1.4292640780545611e+01 0 0 0
349 2 3.9311569729483544e+00 1.0066734164738968e+01 1.3451721068312082e+01 0 0 0
360 2 2.5771002144236856e+00 1.2211385904174739e+01 1.4585903338851612e+01 0 0 0
549 1 3.5852379546512729e+00 2.6489121529425099e+00 1.3925335346382109e+01 0 1 0
553 1 4.6229720005501145e+00 2.1900195077697364e+00 1.2844643894476651e+01 0 1 0
558 1 4.9844869415561384e+00 6.1166267388218476e-01 1.4292635806374410e+01 0 1 0
565 2 3.9312209421041904e+00 1.8686956917395852e+00 1.3451715468522830e+01 0 1 0
576 2 2.5771569267350438e+00 4.0133429913798278e+00 1.4585902575486948e+01 0 1 0
369 1 7.6593191929998232e+00 1.0846951590244199e+01 1.3925340572855406e+01 0 0 0
373 1 8.6970526255265366e+00 1.0388057000274880e+01 1.2844649718227769e+01 0 0 0
378 1 9.0585647646352019e+00 8.8096986909344075e+00 1.4292639565251530e+01 0 0 0
385 2 8.0053007359526216e+00 1.0066734233343842e+01 1.3451720951748298e+01 0 0 0
396 2 6.6512443768204061e+00 1.2211386303603451e+01 1.4585904036595014e+01 0 0 0
585 1 7.6593819720329508e+00 2.6489114580999722e+00 1.3925334445360130e+01 0 1 0
589 1 8.6971161812842155e+00 2.1900181143374486e+00 1.2844643623703343e+01 0 1 0
594 1 9.0586313639921361e+00 6.1165974748481922e-01 1.4292635479097639e+01 0 1 0
601 2 8.0053643345118175e+00 1.8686947519119663e+00 1.3451714564175912e+01 0 1 0
612 2 6.6513024700800649e+00 4.0133445056492727e+00 1.4585901566636636e+01 0 1 0
405 1 1.1733464535487840e+01 1.0846952438752066e+01 1.3925338980229851e+01 0 0 0
409 1 5.4876548606950681e-01 1.0388057120700635e+01 1.2844648417315396e+01 1 0 0
414 1 9.1027584972221010e-01 8.8096982082970339e+00 1.4292639657067724e+01 1 0 0
421 2 1.2079445546033053e+01 1.0066734845827114e+01 1.3451719345474356e+01 0 0 0
432 2 1.0725390205109180e+01 1.2211387307999109e+01 1.4585903152504338e+01 0 0 0
621 1 1.1733526735886572e+01 2.6489118110003997e+00 1.3925334376906548e+01 0 1 0
625 1 5.4882832165156736e-01 2.1900169934196905e+00 1.2844643944999911e+01 1 1 0
630 1 9.1034354053769762e-01 6.1166025592065709e-01 1.4292637778958282e+01 1 1 0
637 2 1.2079509245489334e+01 1.8686944259881164e+00 1.3451715709078416e+01 0 1 0
648 2 1.0725445286129785e+01 4.0133445655407272e+00 1.4585899463222956e+01 0 1 0
330 1 3.6753077391300253e+00 9.9764871678428229e+00 1.6509097619607612e+01 0 0 0
338 1 5.3932718364638159e+00 1.1670330425282737e+01 1.5948830315103500e+01 0 0 0
348 1 2.0254420022535342e+00 8.5282148172192276e+00 1.5344295673216099e+01 0 0 0
354 2 5.0131896635733657e+00 1.1170070395055028e+01 1.6689603330528936e+01 0 0 0
546 1 3.6753708020252653e+00 1.7784528516310361e+00 1.6509101128208911e+01 0 1 0
554 1 5.3933310432012194e+00 3.4722937441953285e+00 1.5948831442786895e+01 0 1 0
564 1 2.0255088695248893e+00 3.3017835371644355e-01 1.5344294921434209e+01 0 1 0
570 2 5.0132510301458453e+00 2.9720361048822710e+00 1.6689607158304877e+01 0 1 0
366 1 7.7494527930985635e+00 9.9764881938424121e+00 1.6509097115380438e+01 0 0 0
374 1 9.4674170802124813e+00 1.1670332123446508e+01 1.5948831669007010e+01 0 0 0
384 1 6.0995865345567957e+00 8.5282139968691748e+00 1.5344296027723606e+01 0 0 0
390 2 9.0873350431892828e+00 1.1170071872285325e+01 1.6689604542002908e+01 0 0 0
582 1 7.7495145313838050e+00 1.7784539691611123e+00 1.6509099462095737e+01 0 1 0
590 1 9.4674775763034376e+00 3.4722913582591879e+00 1.5948829786710331e+01 0 1 0
600 1 6.0996523489954493e+00 3.3018087346386665e-01 1.5344292997094948e+01 0 1 0
606 2 9.0873968085020280e+00 2.9720337718397496e+00 1.6689605247019216e+01 0 1 0
402 1 1.1823596791064872e+01 9.9764892685718252e+00 1.6509097421426912e+01 0 0 0
410 1 1.3191288760590509e+00 1.1670331486985647e+01 1.5948831315641291e+01 1 0 0
420 1 1.0173731433537295e+01 8.5282161190933579e+00 1.5344295133642511e+01 0 0 0
426 2 9.3904681353398534e-01 1.1170071867025950e+01 1.6689604670688031e+01 1 0 0
618 1 1.1823659225722208e+01 1.7784505982369390e+00 1.6509100612342621e+01 0 1 0
626 1 1.3191879769604855e+00 3.4722906668336111e+00 1.5948831345366891e+01 1 1 0
636 1 1.0173796662046875e+01 3.3017741595190464e-01 1.5344292611351298e+01 0 1 0
642 2 9.3910723610097679e-01 2.9720334746189048e+00 1.6689607097618566e+01 1 1 0
332 1 2.5277413138895923e+00 5.5498248943787480e+00 1.8100087250178067e+01 0 0 0
336 1 5.5641508503584340e+00 6.0087121295009078e+00 1.7019396333982087e+01 0 0 0
341 1 5.2026437339883378e+00 7.5870766762743385e+00 1.8467383318342588e+01 0 0 0
350 2 3.5358307794213344e+00 4.1853982738563120e+00 1.8760654992745792e+01 0 0 0
355 2 2.1817568836025436e+00 6.3300394686878390e+00 1.7626465212464677e+01 0 0 0
368 1 6.6018883375265922e+00 5.5498233013537881e+00 1.8100086769655423e+01 0 0 0
372 1 9.6382933555744046e+00 6.0087146631690631e+00 1.7019395068493321e+01 0 0 0
377 1 9.2767882557320114e+00 7.5870790551796894e+00 1.8467382505883993e+01 0 0 0
386 2 7.6099764776733876e+00 4.1853960950831697e+00 1.8760654180454150e+01 0 0 0
391 2 6.2559033221177121e+00 6.3300378857517714e+00 1.7626465166761673e+01 0 0 0
404 1 1.0676029308110177e+01 5.5498245288478980e+00 1.8100086573688994e+01 0 0 0
408 1 1.4900050728305012e+00 6.0087139881088829e+00 1.7019395535497559e+01 1 0 0
413 1 1.1284977942460372e+00 7.5870788729945788e+00 1.8467382379735945e+01 1 0 0
422 2 1.1684117478898562e+01 4.1853967982529721e+00 1.8760654548961693e+01 0 0 0
427 2 1.0330045621762292e+01 6.3300394859053011e+00 1.7626464675909244e+01 0 0 0
327 1 2.7567039206282460e+00 7.5713167682180762e+00 1.3273606903147648e+01 0 0 0
328 1 4.4746823771062170e+00 5.8774642163531556e+00 1.2713352504498234e+01 0 0 0
346 1 6.1245653928013901e+00 4.4291864976434470e+00 1.3878140079426791e+01 0 0 0
356 2 3.1367902660973330e+00 7.0710484180617597e+00 1.2532842241092832e+01 0 0 0
363 1 6.8308515583883676e+00 7.5713190250933753e+00 1.3273605431723858e+01 0 0 0
364 1 8.5488267540880152e+00 5.8774642840059172e+00 1.2713350381255268e+01 0 0 0
382 1 1.0198708058672853e+01 4.4291861529988426e+00 1.3878137814685250e+01 0 0 0
392 2 7.2109366192808118e+00 7.0710510535267153e+00 1.2532839962600345e+01 0 0 0
399 1 1.0904994012031807e+01 7.5713174081658554e+00 1.3273605606271900e+01 0 0 0
400 1 4.0053747653351551e-01 5.8774625774586458e+00 1.2713354591988619e+01 1 0 0
418 1 2.0504192671267458e+00 4.4291847134487732e+00 1.3878141312180542e+01 1 0 0
429 2 1.4468576531676516e-01 5.9677098072891051e+00 1.5770715454384824e+01 1 0 0
335 1 4.5648051135326435e+00 6.7479275651482071e+00 1.5297095504987215e+01 0 0 0
339 1 3.5270766896158534e+00 6.2890285824598440e+00 1.6377788278252201e+01 0 0 0
344 1 3.1655855094453491e+00 4.7106735971965135e+00 1.4929795891123673e+01 0 0 0
351 2 5.5728548028631204e+00 8.1123710238316846e+00 1.4636530861457752e+01 0 0 0
357 2 4.2188304602333426e+00 5.9677084525054394e+00 1.5770717961418027e+01 0 0 0
371 1 8.6389502473669513e+00 6.7479299627862224e+00 1.5297093803597479e+01 0 0 0
375 1 7.6012214251849430e+00 6.2890299325925190e+00 1.6377786083493536e+01 0 0 0
380 1 7.2397318282942518e+00 4.7106747078032125e+00 1.4929794383170977e+01 0 0 0
387 2 9.6469999588621924e+00 8.1123729272110516e+00 1.4636529897066083e+01 0 0 0
393 2 8.2929753952819301e+00 5.9677105067610556e+00 1.5770715595559992e+01 0 0 0
407 1 4.9066073379863451e-01 6.7479293394315514e+00 1.5297093860068895e+01 1 0 0
411 1 1.1675364204363314e+01 6.2890293475639591e+00 1.6377785814421237e+01 0 0 0
416 1 1.1313873998064462e+01 4.7106751932055388e+00 1.4929792542807741e+01 0 0 0
423 2 1.4987103931314920e+00 8.1123720557309174e+00 1.4636530272016184e+01 1 0 0
352 2 4.6142115284473180e+00 8.2844035068688431e+00 1.8811276513982644e+01 0 0 0
388 2 8.6883560733799321e+00 8.2844056130739681e+00 1.8811276421269863e+01 0 0 0
604 2 8.6884196365934194e+00 8.6372955901154444e-02 1.8811279206851989e+01 0 1 0
325 1 2.5858569817937833e+00 1.0107736081880976e+01 2.0552534629505768e+01 0 0 0
334 1 5.6222697769333339e+00 9.6488411546989035e+00 1.9471843285347006e+01 0 0 0