LAMMPS data file via write_data, version 5 Jun 2019, timestep = 0

288 atoms
2 atom types

0.0000000000000000e+00 1.3351731848526899e+01 xlo xhi
0.0000000000000000e+00 1.3405824442801601e+01 ylo yhi
0.0000000000000000e+00 1.4480976680753200e+01 zlo zhi
-3.1495813830989001e-03 6.1808671023754203e-02 -1.2914499752487900e-03 xy xz yz

Masses

1 1.008
2 15.9994

Atoms # atomic

1 2 2.6209937910939045e+00 2.8644326866425480e+00 1.0641168588599006e-01 0 0 0
2 2 4.2330655640087267e+00 1.2409894304503539e+00 3.5190604427974921e+00 0 0 0
3 2 5.9295638643800732e+00 4.6390434971196139e+00 5.5793928183592021e+00 0 0 0
4 2 1.3439612348763348e+00 4.2561906486933250e+00 3.7599428791422476e+00 0 0 0
5 2 4.7079031423469901e+00 5.8959566652707442e+00 1.8219136739815578e+00 0 0 0
6 2 4.0719739610756731e+00 3.9772486294475233e+00 3.6817522003341945e+00 0 0 0
7 2 7.7200024884605190e-01 6.2068489285451989e+00 1.8755491994939084e+00 0 0 0
8 2 2.0960725083452214e+00 7.7872333260979609e-01 5.2294759919468694e+00 0 0 0
153 1 4.4522970863804101e+00 4.4005218293989169e-03 2.2734647396260264e+00 0 1 0
10 2 6.1276960033047674e+00 6.7734657736885562e-01 5.4665796890331180e+00 0 0 0
11 2 7.2780965862004232e-01 2.2376244315433951e+00 2.0436511566613897e+00 0 0 0
12 2 5.3540994398153003e+00 2.4725096052051319e+00 4.2200312939617138e-02 0 0 0
97 1 2.0007029243401702e+00 2.6422741845623312e+00 8.2773227982488873e-01 0 0 0
99 1 3.4253539887042930e+00 1.0418059676002864e+00 4.0339286329028017e+00 0 0 0
100 1 4.2156223263592336e+00 2.2139749086817488e+00 3.4249050788316917e+00 0 0 0
101 1 5.2082859927276326e+00 4.3973056703032460e+00 4.9628463409404953e+00 0 0 0
102 1 5.8201792585623577e+00 4.0172913346256864e+00 6.3232162325706049e+00 0 0 0
103 1 1.0646635776046447e+00 3.4611373224134696e+00 3.2616797458047837e+00 0 0 0
104 1 7.1975700013469457e-01 4.3346837732034986e+00 4.5050031188402109e+00 0 0 0
105 1 4.0905572312224106e+00 5.8362640552108189e+00 1.0697882007522370e+00 0 0 0
209 1 1.9208836891342649e+00 5.8114160497231628e+00 5.9633560923830842e-01 0 0 0
107 1 4.2936770863169409e+00 4.6008557596745048e+00 2.9600290431992384e+00 0 0 0
108 1 3.1204990261016787e+00 4.1243997889307691e+00 3.8464896787876479e+00 0 0 0
110 1 9.9357238084080268e-01 5.5990868105948701e+00 2.6079031711041774e+00 0 0 0
111 1 2.3162500007519302e+00 1.5032836015335944e+00 5.8529301326804530e+00 0 0 0
113 1 2.4853147087683176e+00 5.9766322922235862e+00 6.4512851644526323e+00 0 0 0
114 1 2.5958646510562171e+00 4.4953731967120092e+00 6.9959792941535630e+00 0 0 0
115 1 5.5234318453700935e+00 8.8497448887606012e-01 4.7275890541615144e+00 0 0 0
117 1 7.7065281116148576e-01 1.2666317698124065e+00 2.1471508199913867e+00 0 0 0
216 1 5.7237278575651045e+00 1.8401549169975069e+00 6.7357294962090233e+00 0 0 0
119 1 5.8909954494259473e+00 2.4210797768964194e+00 8.5176889485121887e-01 0 0 0
120 1 4.4163664894444699e+00 2.5664647102228026e+00 2.9008618674754905e-01 0 0 0
134 1 6.4915055873932150e+00 6.0663080883622778e+00 1.8815618766046229e+00 0 0 0
139 1 2.6841767473852612e-01 7.6117048988110203e-01 5.3193102128674941e+00 0 0 0
163 1 6.0126345457387558e+00 6.4082016035244598e+00 5.6008192146873554e+00 0 0 0
49 2 2.7589693129424511e+00 2.6708401245572357e+00 7.1121083254889221e+00 0 0 0
106 1 4.4514778293594235e+00 6.7017596627001641e+00 2.3176612248998469e+00 0 0 0
259 1 5.8866847438092123e+00 6.3789919982869652e+00 1.2803440636832866e+01 0 0 0
50 2 3.9433090948803975e+00 1.1549486649005383e+00 1.0697638263172154e+01 0 0 0
51 2 5.8619501208113762e+00 4.5653550875580189e+00 1.2800723785255528e+01 0 0 0
52 2 1.1985839600519932e+00 4.0768311916865549e+00 1.1070980599038213e+01 0 0 0
53 2 4.6655180766709297e+00 5.7963810195964003e+00 9.0369924396492358e+00 0 0 0
54 2 3.9351420911867936e+00 3.8999726666048837e+00 1.0916026935319461e+01 0 0 0
55 2 6.6905691648762766e-01 5.9931831622774485e+00 9.1505996731573287e+00 0 0 0
56 2 1.9733434042201696e+00 9.1659011868084805e-01 1.2711086601196698e+01 0 0 0
57 2 2.7059428439566857e+00 5.6270175067835231e+00 1.4440960995529574e+01 0 0 0
58 2 5.9750485112903933e+00 6.2267248923358143e-01 1.2519929674254824e+01 0 0 0
59 2 9.5405022555300989e-01 2.0524409034805440e+00 9.1530529352115799e+00 0 0 0
60 2 5.4851187090017923e+00 2.5661806297486534e+00 7.3491113802855921e+00 0 0 0
98 1 2.4160942241202727e+00 2.2678614434627424e+00 1.3861524639335213e+01 0 0 0
193 1 3.6976983880623151e+00 2.5726651150537725e+00 7.3633912415683405e+00 0 0 0
194 1 2.2228344682226271e+00 2.4394020024020078e+00 7.8944627332453496e+00 0 0 0
195 1 3.9674744839143434e+00 2.1273206242078446e+00 1.0604907966041900e+01 0 0 0
196 1 4.6872549025854289e+00 9.6635212820882077e-01 1.1304438549737233e+01 0 0 0
197 1 6.6742049668919279e+00 4.2851776472968695e+00 1.2334904886299066e+01 0 0 0
198 1 5.7424027877356991e+00 3.9121435970975007e+00 1.3516244519917542e+01 0 0 0
199 1 2.1697860924381565e+00 4.0587878692237753e+00 1.1182880263346705e+01 0 0 0
200 1 1.0361478126366448e+00 4.8219252881779111e+00 1.0455961381658842e+01 0 0 0
201 1 4.0437131279910465e+00 5.6994600155453519e+00 8.2916103713915774e+00 0 0 0
202 1 4.3770853455426852e+00 6.6023129716555697e+00 9.5100996841093508e+00 0 0 0
203 1 4.2000749078560782e+00 4.5059068737561319e+00 1.0196450186841009e+01 0 0 0
204 1 4.5561512489266693e+00 4.1278723189457800e+00 1.1634910394268182e+01 0 0 0
205 1 1.2810669412065057e+00 5.7649635272657509e+00 8.4239070645827070e+00 0 0 0
207 1 2.5434103004631923e+00 9.8035307097205371e-01 1.1923620110825549e+01 0 0 0
208 1 2.2883804729654811e+00 1.3073294986490994e-01 1.3203101569252810e+01 0 0 0
210 1 2.6756592814644287e+00 4.6592041941698703e+00 1.4316282033369044e+01 0 0 0
211 1 5.7487988743580400e+00 1.1540729998323387e+00 1.3305941177581063e+01 0 0 0
213 1 1.0066214312570769e+00 2.6676921579299786e+00 9.9078757818935017e+00 0 0 0
214 1 1.4496963977730784e-01 2.3066650800350668e+00 8.6680752669018126e+00 0 0 0
215 1 6.1182891722484971e+00 2.4670488437661162e+00 8.0846860131381568e+00 0 0 0
230 1 6.4857260640305361e+00 5.8643808848728565e+00 9.1044651266581855e+00 0 0 0
235 1 1.8745048979036033e-01 7.1738508364187936e-01 1.2748137031420681e+01 0 0 0
9 2 2.5889881817878075e+00 5.4344073667846544e+00 7.2536053040861441e+00 0 0 0
253 1 8.6157211962973534e-01 2.6821752354058903e-01 9.2276897504749726e+00 0 0 0
73 2 2.7872419370788926e+00 9.3945671388249838e+00 7.0963650560787102e+00 0 0 0
26 2 4.2016874172914305e+00 7.9295949018068237e+00 3.5165770837527655e+00 0 0 0
27 2 5.9074162599220710e+00 1.1377380320168776e+01 5.5601080702738424e+00 0 0 0
28 2 1.2830236713602037e+00 1.0984957905068178e+01 3.7705697650489176e+00 0 0 0
29 2 4.6147125931273552e+00 1.2609271552023221e+01 1.7346890487428213e+00 0 0 0
30 2 4.0205734431002549e+00 1.0682306268604329e+01 3.6399296780900339e+00 0 0 0
31 2 6.7969200221258996e-01 1.2910387024234199e+01 1.8459965793656270e+00 0 0 0
32 2 2.2112828929483817e+00 7.3775022936418102e+00 5.2959252649421824e+00 0 0 0
33 2 2.5481444506302853e+00 1.2158137991002137e+01 7.0342517505058213e+00 0 0 0
34 2 6.1497406191490542e+00 7.3608588049067984e+00 5.4278632040565622e+00 0 0 0
35 2 8.0930886767264854e-01 8.9651999737696570e+00 2.0025753981697303e+00 0 0 0
36 2 5.3893845769270472e+00 9.2342921886566565e+00 1.0809886221587134e-02 0 0 0
112 1 2.2924994318032121e+00 1.3378319672790230e+01 5.7470462480183873e+00 0 0 0
116 1 5.9669338323023702e+00 1.3136807879976290e+01 5.6549695370879318e+00 0 0 0
146 1 2.0486598273743710e+00 9.3436073134601774e+00 7.9142885820282760e-01 0 0 0
147 1 4.1690632217702372e+00 8.8997047206672999e+00 3.4066010307309913e+00 0 0 0
148 1 3.4064665250587174e+00 7.7193568661756213e+00 4.0478204542146923e+00 0 0 0
149 1 5.8404345477611797e+00 1.0720462915119471e+01 6.2793225948886437e+00 0 0 0
258 1 3.4002948524018626e+00 1.2446415469528821e+01 4.5858209934911415e-01 0 0 0
151 1 1.0843834521345570e+00 1.0191475385031536e+01 3.2316690065503919e+00 0 0 0
152 1 2.2474189266131148e+00 1.0933555144146364e+01 3.9081748860032093e+00 0 0 0
174 1 5.8587103654588128e-02 1.1150976590278306e+01 5.0397141601790736e+00 1 0 0
154 1 5.5814850334590425e+00 1.2635499515303533e+01 1.5935535872169591e+00 0 0 0
155 1 4.2627591674509793e+00 1.1288698108748106e+01 2.9139664660752111e+00 0 0 0
156 1 4.6288099339040771e+00 1.0924554407294062e+01 4.3645357505250235e+00 0 0 0
157 1 1.3038662715229317e+00 1.2686362128449705e+01 1.1293802871101049e+00 0 0 0
158 1 9.2488292453610843e-01 1.2308462837554167e+01 2.5745574825510320e+00 0 0 0
159 1 1.2410298402663902e+00 7.3958698540270769e+00 5.1865653383666794e+00 0 0 0
160 1 2.3952891209687643e+00 8.1226852815737818e+00 5.9050257957224597e+00 0 0 0
162 1 2.5783109059881761e+00 1.1190752302973985e+01 6.9051930036834008e+00 0 0 0
164 1 5.5403606668178051e+00 7.5715282376135802e+00 4.6964608521285438e+00 0 0 0
264 1 5.7405477429912848e+00 8.5336827862791331e+00 6.6947822069639775e+00 0 0 0
166 1 8.4987455370779352e-01 7.9997334369782864e+00 2.1382898473766967e+00 0 0 0
167 1 5.9091010099668937e+00 9.1979853231214239e+00 8.3245580680952258e-01 0 0 0
168 1 4.4462717015702315e+00 9.3135957093896344e+00 2.4596599618365936e-01 0 0 0
25 2 2.6605838343456929e+00 9.5601180544554456e+00 6.0004799428578011e-02 0 0 0
256 1 2.3231436577922362e+00 6.8387467003683069e+00 1.3160060419857455e+01 0 0 0
74 2 4.0025577492420563e+00 7.8594719595502420e+00 1.0723540557595383e+01 0 0 0
75 2 5.8669194070209825e+00 1.1279095127583524e+01 1.2687471836166967e+01 0 0 0
76 2 1.3252447875539011e+00 1.0785249136653627e+01 1.0936432234292715e+01 0 0 0
77 2 4.6254912536105701e+00 1.2572857942909403e+01 8.8384800017929592e+00 0 0 0
78 2 4.0447992786322180e+00 1.0626319848782138e+01 1.0690215451203574e+01 0 0 0
79 2 7.0158856649262313e-01 1.2723952277815105e+01 9.0615625516435845e+00 0 0 0
80 2 2.0109404518359693e+00 7.6210788908406215e+00 1.2663011160904047e+01 0 0 0
81 2 2.6569357005244552e+00 1.2300528478504239e+01 1.4402617851285397e+01 0 0 0
82 2 6.0058358865590558e+00 7.3147507231870366e+00 1.2552638483034055e+01 0 0 0
83 2 9.7285644891586975e-01 8.7319134570866499e+00 9.1088206641244280e+00 0 0 0
250 1 4.3618323601865612e+00 1.3359274613071292e+01 9.3552785960164027e+00 0 -1 0
145 1 2.4483250275872317e+00 8.9552049430907452e+00 1.3824173043347701e+01 0 0 0
161 1 3.3460473776250410e+00 1.2335770343820702e+01 7.5710825264902368e+00 0 0 0
206 1 8.2638813158354707e-01 6.9472726924605972e+00 9.2879121871244177e+00 0 0 0
212 1 5.8875962370122927e+00 1.3084324740066357e+01 1.2754513258936194e+01 0 0 0
241 1 2.2584534302637889e+00 9.1522304720133700e+00 7.8801928659309990e+00 0 0 0
277 1 6.4825375460033046e+00 1.2622120203131077e+01 8.9690622338164605e+00 0 0 0
243 1 4.0536469421141668e+00 8.8200275907496408e+00 1.0557652782613534e+01 0 0 0
244 1 4.7429023964651575e+00 7.6895523517273281e+00 1.1341829692942413e+01 0 0 0
245 1 6.7035753280664814e+00 1.1036709223907250e+01 1.2244327223707069e+01 0 0 0
246 1 5.7683398184529526e+00 1.0645755762728045e+01 1.3422555736242543e+01 0 0 0
247 1 7.0856859493812152e-01 1.0860617731709414e+01 1.1687858855189591e+01 0 0 0
248 1 1.0988345321800261e+00 1.1535665156824113e+01 1.0350087765938962e+01 0 0 0
249 1 4.4274847617956219e+00 1.1831384865768038e+01 9.4487547251477366e+00 0 0 0
251 1 4.6128363958330807e+00 1.0861195135852562e+01 1.1449926205645095e+01 0 0 0
252 1 3.1154224399267787e+00 1.0749091542382185e+01 1.0964066937711380e+01 0 0 0
254 1 1.2752726736542861e+00 1.2512884986290596e+01 8.3000366212959236e+00 0 0 0
255 1 2.6036388736120046e+00 7.6909585337677022e+00 1.1890757242954097e+01 0 0 0
283 1 2.0212346547401169e-01 7.4337774905378744e+00 1.2704563635353399e+01 0 0 0
257 1 2.6320959013496483e+00 1.1331447063125298e+01 1.4280456461450195e+01 0 0 0
260 1 5.7738094159790885e+00 7.8703515490595626e+00 1.3320445538095255e+01 0 0 0
261 1 1.0530431104776261e+00 9.3657999699282488e+00 9.8457552924769924e+00 0 0 0
262 1 1.6527284203113093e-01 8.9820994103960174e+00 8.6196044328963630e+00 0 0 0
263 1 6.1221705614724060e+00 9.1577478248401878e+00 8.0534340510855706e+00 0 0 0
84 2 5.5175856942807595e+00 9.2743150983910017e+00 7.2967399148167731e+00 0 0 0
242 1 3.7296503816322701e+00 9.3066894965285822e+00 7.3388525894135421e+00 0 0 0
13 2 9.1753314323563995e+00 2.8934650772913142e+00 3.6787175109563953e-02 0 0 0
14 2 1.0910881406655433e+01 1.2334079291926359e+00 3.5286056748105672e+00 0 0 0
15 2 1.2642704908884561e+01 4.5992216199529405e+00 5.6194486737358602e+00 0 0 0
16 2 8.0238351293251355e+00 4.1629499801695573e+00 3.8448887419676891e+00 0 0 0
17 2 1.1405634696491195e+01 5.9096935862628577e+00 1.8818275881859221e+00 0 0 0
18 2 1.0762435456269072e+01 3.9691309691529377e+00 3.7105806833807820e+00 0 0 0
19 2 7.4046907083146412e+00 6.2577492117486724e+00 2.1680405698732663e+00 0 0 0
20 2 8.8864635541985955e+00 7.0069079989609284e-01 5.3075407995389696e+00 0 0 0
61 2 9.3663167114858084e+00 2.7637688314174871e+00 7.1025385699583143e+00 0 0 0
22 2 1.2684035816150638e+01 6.5425898194936061e-01 5.5734667736044523e+00 0 0 0
23 2 7.3470351574003860e+00 2.1994304696010976e+00 1.9662523039361397e+00 0 0 0
24 2 1.1907542381820889e+01 2.4859959177440674e+00 3.2645405321164933e-01 0 0 0
109 1 1.3168812723066134e+01 6.0579681478102190e+00 1.7240969246206406e+00 0 0 0
121 1 1.0112390917264708e+01 2.6964952365030035e+00 2.3254484105206874e-01 0 0 0
123 1 1.0101526977530202e+01 9.6437559893912994e-01 4.0057778141256204e+00 0 0 0
124 1 1.0992798443312530e+01 6.3575028791613808e-01 2.7623240651739565e+00 0 0 0
125 1 1.2652270992701878e+01 5.5718716977497449e+00 5.7148620805850454e+00 0 0 0
126 1 1.1912767098422071e+01 4.4113179928421875e+00 4.9949304098583056e+00 0 0 0
127 1 7.8218717409294110e+00 4.9457998402456740e+00 3.2934028219253362e+00 0 0 0
128 1 7.3954885646071302e+00 4.2513011489193007e+00 4.5857088186508124e+00 0 0 0
129 1 1.0746711664813061e+01 5.8507436973039537e+00 1.1657458536671952e+00 0 0 0
130 1 1.1189531707733952e+01 5.1553243446084176e+00 2.4668258192206149e+00 0 0 0
131 1 9.8070572645354179e+00 4.0664833331741379e+00 3.8937285212621080e+00 0 0 0
132 1 1.0866855661030437e+01 3.0194082168732481e+00 3.5055612191299073e+00 0 0 0
133 1 7.9961252009976160e+00 6.0456629646542606e+00 1.4164945979879320e+00 0 0 0
135 1 9.0477622438469201e+00 1.4689646005920987e+00 5.8922762231069763e+00 0 0 0
136 1 7.9177271903918678e+00 7.0461604861979943e-01 5.1893564254683886e+00 0 0 0
137 1 9.2390921489823352e+00 4.6325778936069506e+00 7.0572686038390424e+00 0 0 0
138 1 9.1477698176434448e+00 6.1217056866480783e+00 6.5606918384743542e+00 0 0 0
140 1 1.2149594884040424e+01 8.7201918924874033e-01 4.7839001134664763e+00 0 0 0
141 1 8.0462074488592457e+00 2.4474142329800004e+00 1.3251010816628903e+00 0 0 0
142 1 7.5023290084704239e+00 2.8012423711880441e+00 2.7173049853827025e+00 0 0 0
181 1 7.4107074302555604e+00 4.2071439148803852e-01 2.0066430374973674e+00 0 0 0
239 1 1.2377968477654013e+01 3.3868052320979225e+00 6.9308718803404759e+00 0 0 0
240 1 1.2333992845445465e+01 1.8578975141673220e+00 6.8300632768821909e+00 0 0 0
118 1 1.3252234408080833e+01 2.3694752673735633e+00 1.5411195625232785e+00 -1 0 0
69 2 9.2201385136275231e+00 5.6472406611803692e+00 2.1763566742376253e-01 0 0 1
237 1 7.5644630054660773e+00 1.1801090397541196e+00 9.3408916038950558e+00 0 0 0
62 2 1.0872805457425812e+01 1.1519746468633503e+00 1.0860170553294747e+01 0 0 0
63 2 1.2602608629344346e+01 4.4543562360151343e+00 1.2978102575734285e+01 0 0 0
64 2 7.9648514603612721e+00 3.9513316164162577e+00 1.1144794598182139e+01 0 0 0
65 2 1.1256636424027674e+01 5.8715109213896950e+00 9.2005457244516791e+00 0 0 0
66 2 1.0711023632579183e+01 3.8808257625116727e+00 1.1041724551912580e+01 0 0 0
67 2 7.4121883045939452e+00 6.0074831440406795e+00 9.3735577138643098e+00 0 0 0
68 2 8.7407717174544022e+00 9.8182888775734289e-01 1.2553907051782618e+01 0 0 0
222 1 1.3389448090971634e+01 4.2942104415968094e+00 1.2418053248565535e+01 0 0 0
70 2 1.2611584240484994e+01 5.2195373732434103e-01 1.2985147742810815e+01 0 0 0
71 2 7.5785715945859451e+00 2.1227365719460654e+00 9.0976003051382186e+00 0 0 0
72 2 1.2162579937351659e+01 2.5913306313486002e+00 7.4574027091448896e+00 0 0 0
122 1 9.0257953324129563e+00 2.3133794208000547e+00 1.3760888027860148e+01 0 0 0
143 1 1.2159568549639207e+01 1.7165112541894361e+00 1.4229705490338258e+01 0 0 0
144 1 1.2228251244680152e+01 3.2490844250233799e+00 1.4253153402633087e+01 0 0 0
217 1 8.8193894764747984e+00 2.5186064648522999e+00 7.8753288427708084e+00 0 0 0
218 1 1.0298779291600383e+01 2.6553204438574314e+00 7.3641673734033777e+00 0 0 0
219 1 1.0912294379714432e+01 2.1192569724008488e+00 1.0733515723602498e+01 0 0 0
220 1 1.0029086672209564e+01 1.0361095821072748e+00 1.1341102970673035e+01 0 0 0
221 1 1.2595415092370246e+01 5.4202482925977868e+00 1.3119428679473197e+01 0 0 0
238 1 7.6785936928849852e+00 2.6408836145988079e+00 9.9186042184295733e+00 0 0 0
223 1 8.9316216462650857e+00 3.9404223046749829e+00 1.1279532547364241e+01 0 0 0
224 1 7.8086318978045304e+00 4.7164709589482579e+00 1.0554516346076159e+01 0 0 0
225 1 1.2193265161057980e+01 5.8746062976219422e+00 8.9361694070726045e+00 0 0 0
226 1 1.0692850701291841e+01 5.7944979129057037e+00 8.4088827140066353e+00 0 0 0
227 1 1.0929857160908936e+01 4.5199322941633255e+00 1.0337249569770410e+01 0 0 0
228 1 1.1319412231557150e+01 4.1102111339001040e+00 1.1770664950453432e+01 0 0 0
229 1 7.9744151512636288e+00 5.8227108491849782e+00 8.5966207970951256e+00 0 0 0
231 1 7.7835657621132803e+00 8.9888878151220342e-01 1.2383459870043557e+01 0 0 0
232 1 8.9448134595080138e+00 1.9744893432957253e-01 1.3103632360380157e+01 0 0 0
233 1 9.1601283510007239e+00 6.2277999181991284e+00 1.3923844894149388e+01 0 0 0
234 1 9.2119511434814036e+00 4.7187413317096683e+00 1.4411117067228380e+01 0 0 0
236 1 1.2071052651459828e+01 7.4833365229327731e-01 1.2204253024063489e+01 0 0 0
21 2 9.2496947830402743e+00 5.5600038594776526e+00 7.3515543741867999e+00 0 0 0
37 2 9.2857885617279834e+00 9.4944293862016576e+00 2.4536560316962192e-01 0 0 0
38 2 1.0933400822490805e+01 8.0145693875806643e+00 3.5888643069725141e+00 0 0 0
39 2 1.2598513223902499e+01 1.1282128093023534e+01 5.5713580690577986e+00 0 0 0
40 2 7.9695432381445421e+00 1.1084776259921144e+01 3.7884151645046571e+00 0 0 0
41 2 1.1293132940839667e+01 1.2661585686785720e+01 1.5957043971871989e+00 0 0 0
42 2 1.0733151268308584e+01 1.0768295490661441e+01 3.5534162426804956e+00 0 0 0
43 2 7.3425237102556791e+00 1.2881075022330210e+01 1.7640767983109804e+00 0 0 0
44 2 8.9130542619266713e+00 7.4866099957272674e+00 5.3650836390524521e+00 0 0 0
150 1 6.7360708541174565e+00 1.1193253262791886e+01 5.0773388324379241e+00 0 0 0
46 2 1.2823043763909242e+01 7.3326666790250616e+00 5.4791017600415604e+00 0 0 0
47 2 7.2953828302499764e+00 9.0485045275360445e+00 2.0850766626871953e+00 0 0 0
48 2 1.2066382534672689e+01 9.2626155842023632e+00 2.9935952757097045e-01 0 0 0
171 1 1.0130453911732346e+01 7.7643402137841111e+00 4.0874068494487128e+00 0 0 0
172 1 1.1038384723081585e+01 7.3437101074468254e+00 2.8865285096725031e+00 0 0 0
173 1 1.2581949001052509e+01 1.2243998949204673e+01 5.7333352317421475e+00 0 0 0
288 1 1.2406955236184782e+01 1.0051985477030835e+01 6.8352656325437522e+00 0 0 0
175 1 8.9392834692834047e+00 1.1016548120680586e+01 3.8706033652780865e+00 0 0 0
176 1 7.7199716468830069e+00 1.0288091990593806e+01 3.2750381351185829e+00 0 0 0
177 1 1.2263567919394081e+01 1.2716573617604784e+01 1.5088342513291524e+00 0 0 0
178 1 1.1137745892747445e+01 1.1917717244507658e+01 2.2110967897987859e+00 0 0 0
179 1 1.0846039972917362e+01 9.8088152637574844e+00 3.4134689169338852e+00 0 0 0
180 1 1.1324578712458845e+01 1.0969487093557474e+01 4.3042269505514952e+00 0 0 0
182 1 7.5956532669631613e+00 1.2353899081648384e+01 2.5462595327261268e+00 0 0 0
183 1 9.0637128358940249e+00 8.2246153862286562e+00 5.9914057806599228e+00 0 0 0
184 1 7.9513935303595060e+00 7.4811109184997724e+00 5.2054506303974879e+00 0 0 0
185 1 9.1849668882508659e+00 1.2723386299788119e+01 6.4912968650336227e+00 0 0 0
187 1 1.2211626372946608e+01 7.5959249239856899e+00 4.7621949569565318e+00 0 0 0
188 1 1.2605224947420066e+01 7.9521531025702128e+00 6.2031065308678039e+00 0 0 0
189 1 8.0327040280646145e+00 9.1911333045926202e+00 1.4539326578702763e+00 0 0 0
190 1 7.3458612657780877e+00 8.0955037394983140e+00 2.2844053177566410e+00 0 0 0
191 1 1.1103960472011204e+01 9.3055955053968109e+00 4.4670766142254054e-01 0 0 0
165 1 1.3325515109569899e+01 9.0984258054369640e+00 1.5085002547250481e+00 -1 0 0
281 1 8.5091605566154058e+00 1.2495471475178515e+01 4.8650221713499081e-01 0 0 0
282 1 1.0033524390233172e+01 1.2480115487319670e+01 3.0243488318066652e-01 0 0 0
265 1 9.3430109131171264e+00 1.0326944377366505e+01 7.1328611655693805e+00 0 0 0
85 2 9.4706805602094182e+00 9.3685615807717539e+00 7.2759962499733808e+00 0 0 0
86 2 1.0800463745462110e+01 7.8424298989915604e+00 1.1027737376583886e+01 0 0 0
87 2 1.2644042746878164e+01 1.1138772953459142e+01 1.2793342705794242e+01 0 0 0
88 2 7.9871702835214231e+00 1.0750253903311139e+01 1.1048111836871842e+01 0 0 0
89 2 1.1282503359180621e+01 1.2591814653807710e+01 9.0109255307039220e+00 0 0 0
90 2 1.0730736931382120e+01 1.0590897692759661e+01 1.0870814722344159e+01 0 0 0
91 2 7.4151698657569796e+00 1.2737506424858037e+01 9.2277029729465543e+00 0 0 0
92 2 8.8033979636150175e+00 7.5861847738536969e+00 1.2843520009801164e+01 0 0 0
287 1 1.1278252785963094e+01 9.2529375410999304e+00 7.5121635640455047e+00 0 0 0
94 2 1.2637657816658718e+01 7.2414481231573200e+00 1.2980262663477221e+01 0 0 0
95 2 7.5263376474727766e+00 8.8001742415098860e+00 9.1424346710179663e+00 0 0 0
96 2 1.2244857316054141e+01 9.2546834797267152e+00 7.3801613748898323e+00 0 0 0
286 1 7.6339703980349194e+00 9.3653811125446040e+00 9.9303049788076905e+00 0 0 0
170 1 9.1206301222327699e+00 8.9147682146297864e+00 1.3971058634948474e+01 0 0 0
186 1 1.0059883598194959e+01 1.2360729869423523e+01 7.7393144989332772e+00 0 0 0
192 1 1.2253278399484259e+01 8.4872004253489326e+00 1.4194048945673003e+01 0 0 0
266 1 8.8517398719667248e+00 9.1483712966505415e+00 8.0005508752048069e+00 0 0 0
267 1 1.0916637988914076e+01 7.2577075333798620e+00 1.0255050866826396e+01 0 0 0
268 1 1.0826141891562143e+01 8.7702701812075521e+00 1.0735015566124423e+01 0 0 0
269 1 1.2598205528696504e+01 1.2071952805755251e+01 1.3064890478881132e+01 0 0 0
270 1 1.2498547135594821e+01 1.0585894496888079e+01 1.3584463569854323e+01 0 0 0
271 1 7.8192401274173120e+00 1.1499820146482680e+01 1.0441062315744929e+01 0 0 0
272 1 8.9567860008605731e+00 1.0740146755266936e+01 1.1161297815287242e+01 0 0 0
273 1 1.1111316395397440e+01 1.3371638012586212e+01 9.5801150961492603e+00 0 0 0
274 1 1.2245135328135905e+01 1.2616166411201050e+01 8.8562484845478231e+00 0 0 0
275 1 1.0950871940644511e+01 1.1221735723569205e+01 1.0160426616149596e+01 0 0 0
276 1 1.1348523613697042e+01 1.0818990546404535e+01 1.1592938490369574e+01 0 0 0
278 1 7.9604639250231077e+00 1.2501063053598225e+01 8.4525222592596592e+00 0 0 0
279 1 7.8835985735913123e+00 7.5190105394155289e+00 1.2537188448907632e+01 0 0 0
280 1 9.3886031666889416e+00 7.6363064789968540e+00 1.2063222221658902e+01 0 0 0
284 1 1.2053655775199733e+01 7.4659080419995814e+00 1.2228290901380504e+01 0 0 0
285 1 7.5078217211965175e+00 7.8703635160087604e+00 9.4286672599688153e+00 0 0 0
45 2 9.2551431205227459e+00 1.2108848712563299e+01 7.2444472040579777e+00 0 0 0
93 2 9.2645606473156228e+00 1.2294680562514788e+01 1.4304055955805730e+01 0 0 0
169 1 9.2598297338411371e+00 1.0415327070365128e+01 1.4426073886242193e+01 0 0 0

