LAMMPS data file via write_data, version 5 Jun 2019, timestep = 0

1296 atoms
2 atom types

0.0000000000000000e+00 1.8730888323845800e+01 xlo xhi
0.0000000000000000e+00 2.5581019534565900e+01 ylo yhi
0.0000000000000000e+00 2.4261470742927500e+01 zlo zhi
4.0128378647549301e+00 2.3366735360636501e-01 -3.7760029440806597e-01 xy xz yz

Masses

1 1.008
2 15.9994

Atoms # atomic

75 1 5.3386660860812638e+00 9.6549069922945083e+00 1.1627005375756632e+01 1 0 0
91 1 3.8463350714946141e+00 9.9992986426540966e+00 9.3868632668104119e+00 1 0 0
92 1 2.3032133045973988e+00 1.0121175617705944e+01 9.5381704677654842e+00 1 0 0
107 1 5.7688339543998284e+00 1.1139440170465098e+01 8.9644500415768960e+00 1 0 0
388 1 1.2374671395678238e+00 -6.8527930309910418e-02 5.7980460350492926e+00 1 1 0
124 2 5.0839505008414250e+00 1.0781074881785710e+01 8.3628235670405235e+00 1 0 0
126 2 3.0920723522827789e+00 9.7661180098659361e+00 9.9595988494882448e+00 1 0 0
939 1 5.2607675686476938e+00 9.7807740434971802e+00 3.5398481664437824e+00 1 0 1
955 1 3.7684284402327197e+00 1.0125159138180065e+01 1.2997153098434640e+00 1 0 1
956 1 2.2253056708121535e+00 1.0247030611728340e+01 1.4510155846498511e+00 1 0 1
971 1 5.6909280512139526e+00 1.1265304921935419e+01 8.7730837822227425e-01 1 0 1
972 1 2.3142750936353540e+00 1.2515800732997684e+01 4.1168037312567378e+00 1 0 1
988 2 5.0060450465536608e+00 1.0906940083357568e+01 2.7568107921200147e-01 1 0 1
990 2 3.0141639552307513e+00 9.8919749728070805e+00 1.8724471166648611e+00 1 0 1
363 1 4.0010615592589982e+00 1.1279033798019051e+00 1.1627013357334333e+01 1 1 0
379 1 2.5087300204422505e+00 1.4722969159050343e+00 9.3868704302174919e+00 1 1 0
380 1 9.6560788254141461e-01 1.5941740012106160e+00 9.5381741905519206e+00 1 1 0
395 1 4.4312307347475217e+00 2.6124374768431107e+00 8.9644512018189033e+00 1 1 0
912 1 6.3321902990095200e+00 1.2685922472236166e+01 2.1328665786366510e+00 0 0 1
412 2 3.7463467449692454e+00 2.2540691290669321e+00 8.3628273191305968e+00 1 1 0
414 2 1.7544663501721607e+00 1.2391186891363433e+00 9.9596056790680478e+00 1 1 0
1227 1 3.9231731926737443e+00 1.2537603587119814e+00 3.5398496263362915e+00 1 1 1
1243 1 2.4308302016088885e+00 1.5981500472645245e+00 1.2997118047449261e+00 1 1 1
1244 1 8.8770831985150989e-01 1.7200248181189097e+00 1.4510178521168962e+00 1 1 1
1259 1 4.3533264326009746e+00 2.7382945527362699e+00 8.7730073406967413e-01 1 1 1
1260 1 9.7667167540534672e-01 3.9887881599279202e+00 4.1167982947944068e+00 1 1 1
1276 2 3.6684439529395174e+00 2.3799290474686758e+00 2.7567336816192312e-01 1 1 1
1278 2 1.6765673583304177e+00 1.3649681855603195e+00 1.8724468243412462e+00 1 1 1
11 1 6.0606858538641575e+00 1.1705620811201401e+01 5.0157708662152594e+00 0 0 0
15 1 6.0630354492592700e+00 9.5729045855091837e+00 5.7734783360877513e+00 0 0 0
62 2 6.5811922515769634e+00 1.2360183383029151e+01 5.5104218880449718e+00 0 0 0
299 1 4.7230884442883214e+00 3.1786068692511367e+00 5.0157668148029293e+00 0 1 0
303 1 4.7254349371409399e+00 1.0458956721223613e+00 5.7734839541551022e+00 0 1 0
350 2 5.2435956862993054e+00 3.8331701195886256e+00 5.5104163932022123e+00 0 1 0
79 1 2.1998818886795917e+00 1.1172525252111354e+01 7.4549807881835983e+00 1 0 0
80 1 3.7184930276688388e+00 1.1488499072459073e+01 7.6045796722989802e+00 1 0 0
104 1 5.6161768847070492e+00 1.0262878454190469e+01 7.7257819115225868e+00 1 0 0
105 1 3.8967349323990033e+00 9.0156390662497063e+00 5.2048715997790147e+00 1 0 0
109 1 3.1186046120178275e+00 1.2158934446115952e+01 5.3746546386351222e+00 1 0 0
133 2 3.2023040123063153e+00 1.2244589045819952e+01 4.4099385117035812e+00 1 0 0
137 2 2.8956229415556485e+00 1.1765411687320841e+01 7.1476493114615414e+00 1 0 0
141 2 5.0533570909464176e+00 1.0272867248467543e+01 4.3516086820627473e+00 1 0 0
937 1 4.2937284870971375e+00 1.0846275625773313e+01 4.1286273542403249e+00 1 0 1
367 1 8.6227968160358603e-01 2.6455119401553757e+00 7.4549777754636759e+00 1 1 0
368 1 2.3808896148146101e+00 2.9614895822469585e+00 7.6045780976626860e+00 1 1 0
392 1 4.2785729599052393e+00 1.7358709792681115e+00 7.7257869221717499e+00 1 1 0
393 1 2.5591353612063044e+00 4.8863381659304134e-01 5.2048772664170615e+00 1 1 0
397 1 1.7810011635616541e+00 3.6319200006717183e+00 5.3746487628340116e+00 1 1 0
421 2 1.8646999211289521e+00 3.7175739933043390e+00 4.4099326557579808e+00 1 1 0
425 2 1.5580199312872482e+00 3.2383982556947326e+00 7.1476447221310222e+00 1 1 0
429 2 3.7157598580168059e+00 1.7458564643987688e+00 4.3516078907119882e+00 1 1 0
1225 1 2.9561304730320233e+00 2.3192618382183214e+00 4.1286221113098041e+00 1 1 1
13 1 5.9702401035323955e+00 7.4929561862363139e+00 1.1187808261090924e+01 0 0 0
60 2 5.9398355416560635e+00 8.1899440416497100e+00 1.0510811325610778e+01 0 0 0
877 1 5.8923423704664861e+00 7.6188208006375646e+00 3.1006531238430384e+00 0 0 1
924 2 5.8619363548859349e+00 8.3158090063036560e+00 2.4236564405768406e+00 0 0 1
336 1 5.0724864566550512e+00 4.0330603790745476e+00 1.0220006766744142e+01 0 1 0
1200 1 4.9945801251900219e+00 4.1589131177611200e+00 2.1328577742910184e+00 0 1 1
76 1 2.9646860819135545e+00 7.5283752571437352e+00 1.1943961356087451e+01 1 0 0
81 1 3.3643953092901331e+00 5.7635321849201038e+00 1.0589194322448098e+01 1 0 0
82 1 2.9764369103419912e+00 4.3481458847260486e+00 1.1024135569639249e+01 1 0 0
101 1 2.9405149158813915e+00 8.1583498121234221e+00 1.0545438593894930e+01 1 0 0
116 1 3.6099766253138768e+00 5.0529964147748210e+00 8.3621928301215451e+00 1 0 0
127 2 2.7324558149791991e+00 7.3236341469379278e+00 1.1019589669706395e+01 1 0 0
136 2 3.4789335313681109e+00 4.8243020722175700e+00 1.0348653835149221e+01 1 0 0
940 1 2.8867918079684420e+00 7.6542347036745664e+00 3.8568133212364670e+00 1 0 1
945 1 3.2864970775938875e+00 5.8893924132334430e+00 2.5020435120675169e+00 1 0 1
946 1 2.8985341199327017e+00 4.4740062599930113e+00 2.9369811291018761e+00 1 0 1
965 1 2.8626129016457162e+00 8.2842084329490469e+00 2.4582902870956445e+00 1 0 1
980 1 3.5320779876672717e+00 5.1788600863135539e+00 2.7504315761580728e-01 1 0 1
991 2 2.6545573964536016e+00 7.4494926431758328e+00 2.9324428881395863e+00 1 0 1
1000 2 3.4010337043941918e+00 4.9501625262284827e+00 2.2615012345335255e+00 1 0 1
12 1 5.3440894004004980e+00 4.6168662996879686e+00 4.9479199934993803e+00 0 0 0
70 2 5.7310009495430325e+00 6.5124635122113039e+00 4.6761859208424772e+00 0 0 0
99 1 5.0277066927418286e+00 6.9740776512153948e+00 5.1510129026998692e+00 1 0 0
100 1 2.5750666952542680e+00 8.4584773725239000e+00 5.7980399251242325e+00 1 0 0
113 1 5.2076154745648946e+00 6.6029845998730829e+00 7.7645144962429953e+00 1 0 0
114 1 1.7715794697058864e+00 6.1509467678569196e+00 7.3445922605426972e+00 1 0 0
115 1 1.0071463874450775e+00 4.8692431842870452e+00 7.4703414807030963e+00 1 0 0
117 1 4.0529512742970581e+00 4.8370516019073326e+00 6.8941938991357885e+00 1 0 0
129 2 3.4604209348075483e+00 8.1945945180012014e+00 5.4833470393220836e+00 1 0 0
144 2 3.7356685013551623e+00 5.5099485514799573e+00 7.5146757859084126e+00 1 0 0
49 2 7.0398978671138224e+00 1.1863927389449717e+01 9.9568915942328537e+00 0 0 0
14 1 6.8503717191292628e+00 8.5411360403264762e+00 1.0423839233654158e+01 0 0 0
38 1 7.5939368050593679e+00 1.2228594741188362e+01 9.2500410916103011e+00 0 0 0
39 1 9.3730505805612445e+00 1.0019332333351434e+01 8.9754991989286399e+00 0 0 0
40 1 9.4448494233348548e+00 1.1314636195339608e+01 8.1549620195359527e+00 0 0 0
46 1 8.6765983300070779e+00 9.6298790705878510e+00 1.1051931800344612e+01 0 0 0
63 2 9.9386500220703020e+00 1.0497237260837485e+01 8.3343687808044304e+00 0 0 0
68 2 8.4914721250799055e+00 9.1153677613845314e+00 1.0243425082553333e+01 0 0 0
913 2 6.9619950135790871e+00 1.1989787432861919e+01 1.8697472651683762e+00 0 0 1
878 1 6.7724724723171326e+00 8.6670007746282138e+00 2.3366829333582149e+00 0 0 1
902 1 7.5160373106165670e+00 1.2354448252891130e+01 1.1628958853221474e+00 0 0 1
903 1 9.2951592704963115e+00 1.0145193363805221e+01 8.8834611411905406e-01 0 0 1
904 1 9.3669604885665532e+00 1.1440500353827758e+01 6.7814585518588322e-02 0 0 1
910 1 8.5987017465234477e+00 9.7557388032342391e+00 2.9647742998687483e+00 0 0 1
927 2 9.8607611170459215e+00 1.0623100957161984e+01 2.4721977663990879e-01 0 0 1
932 2 8.4135739636932740e+00 9.2412284106828739e+00 2.1562673610306287e+00 0 0 1
337 2 5.7022972230804330e+00 3.3369302384643849e+00 9.9568889292396126e+00 0 1 0
302 1 5.5127669458769057e+00 1.4133309652622716e-02 1.0423847368050291e+01 0 1 0
326 1 6.2563365922572727e+00 3.7015947964470044e+00 9.2500373687108244e+00 0 1 0
327 1 8.0354513601331927e+00 1.4923313507734373e+00 8.9755109943703815e+00 0 1 0
328 1 8.1072515985112652e+00 2.7876346613325760e+00 8.1549727901524545e+00 0 1 0
334 1 7.3389932147444741e+00 1.1028768391189943e+00 1.1051940754837307e+01 0 1 0
351 2 8.6010521861300795e+00 1.9702364659893687e+00 8.3343820424824493e+00 0 1 0
356 2 7.1538676389066813e+00 5.8836565196828527e-01 1.0243433716284372e+01 0 1 0
1201 2 5.6243906967503703e+00 3.4627815725375042e+00 1.8697428699853651e+00 0 1 1
1166 1 5.4348765689158647e+00 1.3999222862047589e-01 2.3366846439576139e+00 0 1 1
1190 1 6.1784320015891998e+00 3.8274439495634343e+00 1.1628916002274237e+00 0 1 1
1191 1 7.9575585083527232e+00 1.6181909102956815e+00 8.8834620502493700e-01 0 1 1
1192 1 8.0293560481826702e+00 2.9134968593731916e+00 6.7812244136981392e-02 0 1 1
1198 1 7.2611036938102789e+00 1.2287349076076222e+00 2.9647757686653295e+00 0 1 1
1215 2 8.5231585650172246e+00 2.0960989860559551e+00 2.4721868269084313e-01 0 1 1
1220 2 7.0759762071948806e+00 7.1422446292720709e-01 2.1562686243414473e+00 0 1 1
5 1 7.8567055831523138e+00 1.2543798942939141e+01 6.8929031113201233e+00 0 0 0
16 1 6.5465880532540561e+00 8.5515264557507766e+00 6.8670936620869245e+00 0 0 0
23 1 9.8225682321785435e+00 9.6678657807763457e+00 5.3472826767965422e+00 0 0 0
24 1 9.9917290417218076e+00 9.3891348724848989e+00 6.8302704245610713e+00 0 0 0
26 1 8.1139986911611448e+00 1.1162520561062667e+01 4.8117493473451800e+00 0 0 0
51 2 8.9187381388832545e+00 1.0858072782478056e+01 4.3739607200333106e+00 0 0 0
56 2 1.0161854334123701e+01 8.9872589070050584e+00 5.9600436418218772e+00 0 0 0
59 2 6.6323966088026376e+00 9.4648628512491975e+00 6.5484376856627975e+00 0 0 0
889 1 9.3247164497144261e+00 1.1683964104396724e+01 4.0484759550206073e+00 0 0 1
293 1 6.5191093699378344e+00 4.0167901116204368e+00 6.8929008371051594e+00 0 1 0
304 1 5.2089846008176481e+00 2.4519302159410797e-02 6.8671021411721558e+00 0 1 0
311 1 8.4849697582371224e+00 1.1408617253876154e+00 5.3472935052993389e+00 0 1 0
312 1 8.6541290271936830e+00 8.6213367340945579e-01 6.8302824018055475e+00 0 1 0
314 1 6.7764009482723724e+00 2.6355147314349501e+00 4.8117485631136274e+00 0 1 0
339 2 7.5811411025206601e+00 2.3310640784723877e+00 4.3739629323126303e+00 0 1 0
344 2 8.8242551264905238e+00 4.6025632704731828e-01 5.9600564829204918e+00 0 1 0
347 2 5.2947940336049539e+00 9.3785523420045780e-01 6.5484448381093712e+00 0 1 0
1177 1 7.9871217054774828e+00 3.1569542552089218e+00 4.0484775695632429e+00 0 1 1
31 1 6.0441072376362701e+00 7.3472636950267312e+00 8.8147070314304266e+00 0 0 0
355 2 7.1352524221611624e+00 4.2491393607374750e+00 7.6064189967862657e+00 0 1 0
22 1 9.7632755817775223e+00 6.3398169839220166e+00 9.1838538442239717e+00 0 0 0
34 1 8.9759340692247225e+00 5.1875799729042686e+00 1.1076153331168321e+01 0 0 0
47 1 8.9458091759163914e+00 8.2530967770770811e+00 1.0292815001708471e+01 0 0 0
53 2 9.6075745052639316e+00 6.5962797898531811e+00 1.0113291723510379e+01 0 0 0
58 2 8.8082160583533877e+00 4.6372983062587112e+00 1.1864724658841594e+01 0 0 0
895 1 5.9662083009610614e+00 7.4731262322360896e+00 7.2755560441664746e-01 0 0 1
885 1 1.0418109634284631e+01 6.9072569207516183e+00 2.3903973841077537e+00 0 0 1
886 1 9.6853802282434422e+00 6.4656783879590858e+00 1.0966937766770282e+00 0 0 1
898 1 8.8980437622651554e+00 5.3134366860079068e+00 2.9889915744415978e+00 0 0 1
911 1 8.8679101580684616e+00 8.3789569002634234e+00 2.2056561218341493e+00 0 0 1
917 2 9.5296785212003883e+00 6.7221405481406125e+00 2.0261316907581128e+00 0 0 1
922 2 8.7303264353830805e+00 4.7631546915032530e+00 3.7775627981662740e+00 0 0 1
50 2 6.0970685219450740e+00 6.9656227744625552e+00 7.9201197706661901e+00 0 0 0
2 1 6.5603046742423547e+00 6.6549975278518438e+00 5.1666786878885445e+00 0 0 0
6 1 7.0362034435329557e+00 5.2082423179558894e+00 7.7203787044725125e+00 0 0 0
17 1 8.8381233384416156e+00 7.5917096723979718e+00 5.5680495534792893e+00 0 0 0
18 1 8.8513067715693676e+00 6.3476200631024087e+00 6.4011107188936478e+00 0 0 0
30 1 8.5755999867120725e+00 5.4427763414815162e+00 4.4627702100123141e+00 0 0 0
66 2 1.0239355782221093e+01 5.8388838618342955e+00 7.5226854385833288e+00 0 0 0
71 2 8.3616074254365866e+00 6.7509523351355432e+00 5.6634008990335367e+00 0 0 0
48 1 6.4100879671685904e+00 1.2560056632690820e+01 1.0220014085058647e+01 0 0 0
316 1 1.0602908558470476e+01 -6.8525639758418466e-02 5.7980551268213647e+00 0 1 0
3 1 1.4704104622152521e+01 9.6549079950885535e+00 1.1627007328573658e+01 0 0 0
19 1 1.3211768903588471e+01 9.9992931193941939e+00 9.3868684314401172e+00 0 0 0
20 1 1.1668646437520866e+01 1.0121165774849443e+01 9.5381692969410370e+00 0 0 0
35 1 1.5134266752477384e+01 1.1139440697099820e+01 8.9644598211139304e+00 0 0 0
120 1 1.5775525149732047e+01 1.2560060783204353e+01 1.0220017733205298e+01 0 0 0
52 2 1.4449384174714346e+01 1.0781075297731531e+01 8.3628324870765329e+00 0 0 0
54 2 1.2457504512726878e+01 9.7661098935007740e+00 9.9596007370516002e+00 0 0 0
867 1 1.4626212625731430e+01 9.7807742526285200e+00 3.5398528393047051e+00 0 0 1
883 1 1.3133878517167755e+01 1.0125158501472418e+01 1.2997155679680694e+00 0 0 1
884 1 1.1590755909866100e+01 1.0247032986355590e+01 1.4510159457039007e+00 0 0 1
899 1 1.5056378571090962e+01 1.1265305543237952e+01 8.7730570176555789e-01 0 0 1
900 1 1.1679720161916885e+01 1.2515799064004620e+01 4.1168050326052619e+00 0 0 1
916 2 1.4371495362105538e+01 1.0906938958944670e+01 2.7567972175344013e-01 0 0 1
918 2 1.2379613548526004e+01 9.8919758981992896e+00 1.8724473555364007e+00 0 0 1
291 1 1.3366508483694549e+01 1.1278994653492147e+00 1.1627023317078917e+01 0 1 0
307 1 1.1874176171385052e+01 1.4722939166441875e+00 9.3868843569184506e+00 0 1 0
308 1 1.0331054362327816e+01 1.5941702086361005e+00 9.5381897534528655e+00 0 1 0
323 1 1.3796674075203786e+01 2.6124358363102891e+00 8.9644679939295635e+00 0 1 0
984 1 1.5697636727303802e+01 1.2685925714833825e+01 2.1328628818965010e+00 0 0 1
340 2 1.3111790513257519e+01 2.2540682096209026e+00 8.3628431556003040e+00 0 1 0
342 2 1.1119913016709601e+01 1.2391143786159786e+00 9.9596199550999813e+00 0 1 0
1155 1 1.3288616502551250e+01 1.2537645751493955e+00 3.5398634800891009e+00 0 1 1
1171 1 1.1796279432478725e+01 1.5981626009060650e+00 1.2997209266857304e+00 0 1 1
1172 1 1.0253157659557473e+01 1.7200383312533498e+00 1.4510259026040047e+00 0 1 1
1187 1 1.3718777393585002e+01 2.7383018090350331e+00 8.7730251713487206e-01 0 1 1
1188 1 1.0342124751896465e+01 3.9887865999048699e+00 4.1168120677849478e+00 0 1 1
1204 2 1.3033893781079559e+01 2.3799347173781804e+00 2.7567739438304101e-01 0 1 1
1206 2 1.1042016595718922e+01 1.3649843304826814e+00 1.8724573752210785e+00 0 1 1
7 1 1.1565317057824458e+01 1.1172528326016291e+01 7.4549852446771743e+00 0 0 0
8 1 1.3083928313995449e+01 1.1488500570986330e+01 7.6045862888641604e+00 0 0 0
32 1 1.4981611865934740e+01 1.0262879969022997e+01 7.7257910242717891e+00 0 0 0
33 1 1.3262175693726851e+01 9.0156399090602335e+00 5.2048746063023179e+00 0 0 0
37 1 1.2484046367310698e+01 1.2158933819813512e+01 5.3746582393932041e+00 0 0 0
61 2 1.2567748405096118e+01 1.2244588022274396e+01 4.4099423319666586e+00 0 0 0
65 2 1.2261059494900223e+01 1.1765413251138812e+01 7.1476536825733286e+00 0 0 0
69 2 1.4418802868515746e+01 1.0272868220731354e+01 4.3516130674778681e+00 0 0 0
865 1 1.3659174117567519e+01 1.0846276470470954e+01 4.1286318223824381e+00 0 0 1
295 1 1.0227720771265137e+01 2.6455159644237187e+00 7.4549966843699798e+00 0 1 0
296 1 1.1746331824252909e+01 2.9614907159473778e+00 7.6045962972748695e+00 0 1 0
320 1 1.3644017390742510e+01 1.7358715484015077e+00 7.7258021994695039e+00 0 1 0
321 1 1.1924579653912254e+01 4.8863725824962584e-01 5.2048936321490675e+00 0 1 0
325 1 1.1146448426411373e+01 3.6319222884699722e+00 5.3746677047731719e+00 0 1 0
349 2 1.1230152233943757e+01 3.7175760011766732e+00 4.4099519992061671e+00 0 1 0
353 2 1.0923462609613125e+01 3.2384003768122045e+00 7.1476628908112154e+00 0 1 0
357 2 1.3081207115832028e+01 1.7458588787398956e+00 4.3516236508573005e+00 0 1 0
1153 1 1.2321578478439923e+01 2.3192674550509818e+00 4.1286421349959168e+00 0 1 1
83 1 1.5426131913704138e+01 1.1705621334797703e+01 5.0157750872219227e+00 0 0 0
87 1 1.5428477103450502e+01 9.5729075591835660e+00 5.7734867618267343e+00 0 0 0
134 2 1.5946639006564979e+01 1.2360182767180545e+01 5.5104268878046287e+00 0 0 0
371 1 1.4088532720769017e+01 3.1786078870052541e+00 5.0157815403226893e+00 0 1 0
375 1 1.4090884000838008e+01 1.0458996086625869e+00 5.7734977641209930e+00 0 1 0
422 2 1.4609040022589580e+01 3.8331722128931696e+00 5.5104296680937033e+00 0 1 0
4 1 1.2330128374145023e+01 7.5283750650459744e+00 1.1943975988386089e+01 0 0 0
9 1 1.2729838356954524e+01 5.7635304597175248e+00 1.0589209579669406e+01 0 0 0
10 1 1.2341878624955289e+01 4.3481437531071823e+00 1.1024148314441145e+01 0 0 0
29 1 1.2305952886231109e+01 8.1583456870171123e+00 1.0545451048118453e+01 0 0 0
44 1 1.2975419544764309e+01 5.0529970905900710e+00 8.3622090116159491e+00 0 0 0
55 2 1.2097896713249261e+01 7.3236310669739169e+00 1.1019605295961581e+01 0 0 0
64 2 1.2844376756050744e+01 4.8243006259494869e+00 1.0348668028005894e+01 0 0 0
868 1 1.2252234466539042e+01 7.6542361424694310e+00 3.8568124623133015e+00 0 0 1
873 1 1.2651941144460540e+01 5.8893920773342350e+00 2.5020456051745716e+00 0 0 1
874 1 1.2263984758338131e+01 4.4740054756824730e+00 2.9369877434631406e+00 0 0 1
893 1 1.2228058193605124e+01 8.2842087700605056e+00 2.4582891469673318e+00 0 0 1
908 1 1.2897526128005682e+01 5.1788589529944504e+00 2.7504048808879222e-01 0 0 1
919 2 1.2020001071869276e+01 7.4494935163358509e+00 2.9324418833022894e+00 0 0 1
928 2 1.2766479941552442e+01 4.9501620349178221e+00 2.2615051661101844e+00 0 0 1
85 1 1.5335678228911853e+01 7.4929597300469473e+00 1.1187811423777838e+01 0 0 0
132 2 1.5305273301317460e+01 8.1899484054810792e+00 1.0510815236271011e+01 0 0 0
949 1 1.5257784833395611e+01 7.6188219422856536e+00 3.1006561166038837e+00 0 0 1
996 2 1.5227379672022989e+01 8.3158103186408443e+00 2.4236596876969911e+00 0 0 1
408 1 1.4437928089084140e+01 4.0330580994712486e+00 1.0220022133324692e+01 0 1 0
1272 1 1.4360032373886177e+01 4.1589206086216075e+00 2.1328593527997768e+00 0 1 1
27 1 1.4393143200675414e+01 6.9740788886978420e+00 5.1510153860166774e+00 0 0 0
28 1 1.1940505488525046e+01 8.4584772754517221e+00 5.7980380816298442e+00 0 0 0
41 1 1.4573057939081403e+01 6.6029832054761757e+00 7.7645226264234921e+00 0 0 0
42 1 1.1137019402724782e+01 6.1509503807041606e+00 7.3446045258279016e+00 0 0 0
43 1 1.0372588779985010e+01 4.8692453116157814e+00 7.4703543558433099e+00 0 0 0
45 1 1.3418393682226027e+01 4.8370505012342662e+00 6.8942100311640298e+00 0 0 0
57 2 1.2825860701779304e+01 8.1945949736564803e+00 5.4833470269447977e+00 0 0 0
72 2 1.3101111029742732e+01 5.5099480356611528e+00 7.5146912482042634e+00 0 0 0
84 1 1.4709531260086404e+01 4.6168684955007677e+00 4.9479329182418610e+00 0 0 0
142 2 1.5096439004436645e+01 6.5124642388369445e+00 4.6761909902094487e+00 0 0 0
121 2 1.6405331875080925e+01 1.1863926515762145e+01 9.9569010865003289e+00 0 0 0
86 1 1.6215809905019398e+01 8.5411385981197085e+00 1.0423840366899952e+01 0 0 0
110 1 1.6959375253539932e+01 1.2228587329018945e+01 9.2500506629285866e+00 0 0 0
111 1 1.8738499619811378e+01 1.0019333669835033e+01 8.9755001900920099e+00 0 0 0
112 1 1.8810300637933548e+01 1.1314640101631227e+01 8.1549678808238291e+00 0 0 0
118 1 1.8042039035027923e+01 9.6298760328817927e+00 1.1051925488516151e+01 0 0 0
135 2 1.9304101980146473e+01 1.0497241449635080e+01 8.3343745357080667e+00 0 0 0
140 2 1.7856910818538271e+01 9.1153663516743073e+00 1.0243418222353577e+01 0 0 0
985 2 1.6327444613604719e+01 1.1989793686590724e+01 1.8697429936347549e+00 0 0 1
950 1 1.6137915861117058e+01 8.6670021814128972e+00 2.3366870713928316e+00 0 0 1
974 1 1.6881484849402270e+01 1.2354457252892376e+01 1.1628915207236341e+00 0 0 1
975 1 1.8660599140499553e+01 1.0145195222140721e+01 8.8834730117950966e-01 0 0 1
976 1 1.8732402230917824e+01 1.1440501408757019e+01 6.7814739241964489e-02 0 0 1
982 1 1.7964144646949123e+01 9.7557422711269552e+00 2.9647778281800679e+00 0 0 1
999 2 1.9226201446625865e+01 1.0623101337967734e+01 2.4722028815519517e-01 0 0 1
1004 2 1.7779016138013858e+01 9.2412315456862579e+00 2.1562712657689929e+00 0 0 1
409 2 1.5067739251151449e+01 3.3369275597447476e+00 9.9569063148772798e+00 0 1 0
374 1 1.4878210895603255e+01 1.4130504563444057e-02 1.0423854970509838e+01 0 1 0
398 1 1.5621779284563601e+01 3.7015902826071310e+00 9.2500542967329711e+00 0 1 0
399 1 1.7400895724252173e+01 1.4923279942180989e+00 8.9755065812231170e+00 0 1 0
400 1 1.7472699300611740e+01 2.7876339505469727e+00 8.1549737575346484e+00 0 1 0
406 1 1.6704438890690966e+01 1.1028732729452047e+00 1.1051935852062535e+01 0 1 0
423 2 1.7966498650218504e+01 1.9702342853282253e+00 8.3343804067955620e+00 0 1 0
428 2 1.6519308941165363e+01 5.8836252375573983e-01 1.0243429595397860e+01 0 1 0
1273 2 1.4989843301730179e+01 3.4627904883686451e+00 1.8697417593783370e+00 0 1 1
1238 1 1.4800317022373187e+01 1.3999518209661255e-01 2.3366924898295376e+00 0 1 1
1262 1 1.5543883187407801e+01 3.8274549850901005e+00 1.1628905782249550e+00 0 1 1
1263 1 1.7322996611667158e+01 1.6181905450863445e+00 8.8835040186995662e-01 0 1 1
1264 1 1.7394798150535426e+01 2.9134955727079315e+00 6.7815425937107335e-02 0 1 1
1270 1 1.6626543481752186e+01 1.2287369675569164e+00 2.9647824542146197e+00 0 1 1
1287 2 1.7888597364877228e+01 2.0960957798264630e+00 2.4722141567693853e-01 0 1 1
1292 2 1.6441415892913493e+01 7.1422633679428138e-01 2.1562755049992273e+00 0 1 1
77 1 1.7222147301266578e+01 1.2543795003743877e+01 6.8929126983738431e+00 0 0 0
88 1 1.5912027407229367e+01 8.5515293622516442e+00 6.8671030663765356e+00 0 0 0
95 1 1.9188014989372530e+01 9.6678698224207800e+00 5.3472867791368470e+00 0 0 0
96 1 1.9357177582584406e+01 9.3891390966550059e+00 6.8302743588915256e+00 0 0 0
98 1 1.7479443526390078e+01 1.1162524745630751e+01 4.8117542042884995e+00 0 0 0
123 2 1.8284182285118519e+01 1.0858076314242810e+01 4.3739645352001721e+00 0 0 0
128 2 1.9527301164170957e+01 8.9872628487028194e+00 5.9600474571465538e+00 0 0 0
131 2 1.5997835381067363e+01 9.4648663118989589e+00 6.5484482443020342e+00 0 0 0
961 1 1.8690160002604923e+01 1.1683967422976147e+01 4.0484785793729596e+00 0 0 1
365 1 1.5884548425762679e+01 4.0167888871683770e+00 6.8929143432491138e+00 0 1 0
376 1 1.4574436741674402e+01 2.4522704266194836e-02 6.8671140144161260e+00 0 1 0
383 1 1.7850415031572702e+01 1.1408634526146280e+00 5.3472913628442296e+00 0 1 0
384 1 1.8019576002057430e+01 8.6213227097799128e-01 6.8302791416261091e+00 0 1 0
386 1 1.6141842346523337e+01 2.6355182839694864e+00 4.8117580900721917e+00 0 1 0
411 2 1.6946580590073690e+01 2.3310682108468197e+00 4.3739684606810245e+00 0 1 0
416 2 1.8189701741798988e+01 4.6025692851228650e-01 5.9600522803265230e+00 0 1 0
419 2 1.4660242272723970e+01 9.3785983200075485e-01 6.5484594199412722e+00 0 1 0
1249 1 1.7352558017638309e+01 3.1569584173325769e+00 4.0484795110202221e+00 0 1 1
103 1 1.5409548039763120e+01 7.3472659439284875e+00 8.8147132281595901e+00 0 0 0
93 1 1.9861452294914212e+01 6.7813986708435134e+00 1.0477543718335124e+01 0 0 0
94 1 1.9128721941435330e+01 6.3398186869123894e+00 9.1838411522246179e+00 0 0 0
106 1 1.8341380460033132e+01 5.1875807793873205e+00 1.1076140754759829e+01 0 0 0
119 1 1.8311248647734423e+01 8.2530954754094896e+00 1.0292804813512744e+01 0 0 0
125 2 1.8973020909102196e+01 6.5962824374904994e+00 1.0113278717841252e+01 0 0 0
130 2 1.8173661781971685e+01 4.6372988124626602e+00 1.1864711636251400e+01 0 0 0
967 1 1.5331654261864093e+01 7.4731293004494965e+00 7.2755641169070084e-01 0 0 1
957 1 1.9783552495504210e+01 6.9072590107325542e+00 2.3903980420317317e+00 0 0 1
958 1 1.9050822680830048e+01 6.4656820925758280e+00 1.0966941036435711e+00 0 0 1
970 1 1.8263479897849844e+01 5.3134428199543535e+00 2.9889898556466239e+00 0 0 1
983 1 1.8233353180578053e+01 8.3789604238599686e+00 2.2056591866794064e+00 0 0 1
989 2 1.8895121132790166e+01 6.7221450402770699e+00 2.0261318650616214e+00 0 0 1
994 2 1.8095761694873669e+01 4.7631605213861405e+00 3.7775606738726202e+00 0 0 1
122 2 1.5462510334935292e+01 6.9656236704948196e+00 7.9201266379784645e+00 0 0 0
74 1 1.5925741752892938e+01 6.6550007818097905e+00 5.1666844853128850e+00 0 0 0
78 1 1.6401646515639918e+01 5.2082399122171887e+00 7.7203911974142869e+00 0 0 0
89 1 1.8203562956662136e+01 7.5917157471085712e+00 5.5680512776453810e+00 0 0 0
90 1 1.8216751394067206e+01 6.3476237993740279e+00 6.4011085458753589e+00 0 0 0
102 1 1.7941037921080639e+01 5.4427819265340824e+00 4.4627688213448131e+00 0 0 0
138 2 1.9604803690951456e+01 5.8388818488955314e+00 7.5226739547223191e+00 0 0 0
143 2 1.7727048192592882e+01 6.7509578434175808e+00 5.6634022035063216e+00 0 0 0
427 2 1.6500690888631869e+01 4.2491363379374585e+00 7.6064337229050567e+00 0 1 0
21 1 1.0496005776253826e+01 6.7813944550914957e+00 1.0477557780417101e+01 0 0 0
507 1 5.4165478208981117e+00 9.5290411208533552e+00 1.9714171741241248e+01 1 0 0
523 1 3.9242144080949712e+00 9.8734300898436835e+00 1.7474031426376126e+01 1 0 0
524 1 2.3810921621414871e+00 9.9953047670500030e+00 1.7625332232835824e+01 1 0 0
539 1 5.8467142739472999e+00 1.1013574573436319e+01 1.7051614317684326e+01 1 0 0
540 1 2.4700607205688954e+00 1.2264071069061606e+01 2.0291122647278769e+01 1 0 0
556 2 5.1618297182307575e+00 1.0655206545901704e+01 1.6449990821902038e+01 1 0 0
558 2 3.1699499204450374e+00 9.6402497844788577e+00 1.8046764891767850e+01 1 0 0
795 1 4.0789417924819436e+00 1.0020328922348085e+00 1.9714167792611015e+01 1 1 0
811 1 2.5866058735685273e+00 1.3464232660779885e+00 1.7474028561186476e+01 1 1 0
812 1 1.0434836055712009e+00 1.4682989614972044e+00 1.7625330226866936e+01 1 1 0
827 1 4.5091046758178974e+00 2.4865685914451809e+00 1.7051617445717461e+01 1 1 0
828 1 1.1324502610614009e+00 3.7370595118326708e+00 2.0291117679715835e+01 1 1 0
844 2 3.8242223618235474e+00 2.1282019398958458e+00 1.6449990515019326e+01 1 1 0
846 2 1.8323415390279003e+00 1.1132423168429391e+00 1.8046761758848589e+01 1 1 0
443 1 6.1385806677649892e+00 1.1579753920825764e+01 1.3102924527694388e+01 0 0 0
447 1 6.1409229684918678e+00 9.4470406714209556e+00 1.3860642613203785e+01 0 0 0
494 2 6.6590879908754310e+00 1.2234316240903988e+01 1.3597575208085336e+01 0 0 0
875 1 6.2164654670828909e+00 1.1453884430875924e+01 2.1190094992031984e+01 0 0 0
879 1 6.2188111592430628e+00 9.3211745622986601e+00 2.1947806612621353e+01 0 0 0
926 2 6.7369734808817299e+00 1.2108446553576037e+01 2.1684745042523630e+01 0 0 0
731 1 4.8009775783737210e+00 3.0527465546161396e+00 1.3102933602215083e+01 0 1 0
735 1 4.8033237412684135e+00 9.2003749318134020e-01 1.3860647358499195e+01 0 1 0
782 2 5.3214843856229992e+00 3.7073099582818028e+00 1.3597583439426650e+01 0 1 0
1163 1 4.8788596372120177e+00 2.9268751498507495e+00 2.1190084970771718e+01 0 1 0
1167 1 4.8812074986431391e+00 7.9416550550346854e-01 2.1947799773115211e+01 0 1 0
1214 2 5.3993675051723127e+00 3.5814381156313089e+00 2.1684734381910630e+01 0 1 0
73 1 4.3716243894994369e+00 1.0720407139631229e+01 1.2215782511247887e+01 1 0 0
505 1 4.4495105245221005e+00 1.0594544952683144e+01 2.0302950386910918e+01 1 0 0
511 1 2.2777622683966787e+00 1.1046656928414414e+01 1.5542143415748020e+01 1 0 0
512 1 3.7963735912314784e+00 1.1362629956043250e+01 1.5691743625259178e+01 1 0 0
536 1 5.6940559494944285e+00 1.0137010483871450e+01 1.5812948675547327e+01 1 0 0
537 1 3.9746221956663916e+00 8.8897753671555613e+00 1.3292029169502880e+01 1 0 0
541 1 3.1964920363464864e+00 1.2033060132209986e+01 1.3461814467671081e+01 1 0 0
565 2 3.2801947348516687e+00 1.2118716170712364e+01 1.2497098809088557e+01 1 0 0
569 2 2.9735046926706752e+00 1.1639541175773759e+01 1.5234810319317813e+01 1 0 0
573 2 5.1312547369741761e+00 1.0147001586165661e+01 1.2438764815578955e+01 1 0 0
943 1 2.3556483135866850e+00 1.0920793021655570e+01 2.3629300899464912e+01 1 0 0
944 1 3.8742585690265146e+00 1.1236766641616901e+01 2.3778905382639696e+01 1 0 0
968 1 5.7719400532995540e+00 1.0011143637648802e+01 2.3900110955670776e+01 1 0 0
969 1 4.0525109977252596e+00 8.7639086816620821e+00 2.1379197431186114e+01 1 0 0
973 1 3.2743826747051754e+00 1.1907202532216088e+01 2.1548977353129604e+01 1 0 0
997 2 3.3580878466412147e+00 1.1992858457452330e+01 2.0584261911694757e+01 1 0 0
1001 2 3.0513901290567205e+00 1.1513679971997863e+01 2.3321972332188192e+01 1 0 0
1005 2 5.2091379063707324e+00 1.0021134967428441e+01 2.0525932069493919e+01 1 0 0
361 1 3.0340232502547564e+00 2.1934071939784427e+00 1.2215789437879033e+01 1 1 0
793 1 3.1119027973663345e+00 2.0675356443444097e+00 2.0302945212977079e+01 1 1 0
799 1 9.4015866304272189e-01 2.5196502535624576e+00 1.5542136509373886e+01 1 1 0
800 1 2.4587680772481422e+00 2.8356264517149059e+00 1.5691742283002823e+01 1 1 0
824 1 4.3564510277606692e+00 1.6100061204617511e+00 1.5812950273946363e+01 1 1 0
825 1 2.6370199056916297e+00 3.6277521362046339e-01 1.3292043982728613e+01 1 1 0
829 1 1.8588927610350212e+00 3.5060631884951619e+00 1.3461813807401837e+01 1 1 0
853 2 1.9425988590736789e+00 3.5917192059130181e+00 1.2497098503448999e+01 1 1 0
857 2 1.6358997619566258e+00 3.1125377029705801e+00 1.5234807765478818e+01 1 1 0
861 2 3.7936507888542361e+00 1.6199980640484217e+00 1.2438772932550304e+01 1 1 0