LAMMPS data file via write_data, version 5 Jun 2019, timestep = 200000

1152 atoms
2 atom types

0.0000000000000000e+00 1.7784973860067801e+01 xlo xhi
0.0000000000000000e+00 3.1764557163960099e+01 ylo yhi
0.0000000000000000e+00 1.7577699118599899e+01 zlo zhi
1.4935066662277399e-01 -5.8286880234165297e+00 -1.1448721262122701e-01 xy xz yz

Masses

1 1.008
2 15.9994

Atoms # atomic

149 1 4.9000500010349679e+00 2.8276153557465160e+00 4.2958518358304767e+00 0 1 0
152 1 4.7167071366775728e+00 1.1076086189313499e+00 2.9777779889341063e+00 0 1 0
158 1 4.6619641107110841e+00 3.8076468654884312e+00 5.4746060456249852e+00 0 1 0
174 2 4.4482261950057715e+00 3.6416061950035536e+00 4.5284584292290715e+00 0 1 0
175 2 5.4502259503074955e+00 1.1946850542871184e+00 3.5919860558527223e+00 0 1 0
345 1 5.3682198866846083e+00 1.4686152132583089e+01 7.6066810458507375e+00 0 0 0
440 1 3.2087320233201768e+00 1.2333585782787493e+00 7.3195515329082887e+00 0 1 0
463 2 3.9127201230383282e+00 1.4105032993190747e+00 7.9681278057248672e+00 0 1 0
1022 1 6.1813351658421629e+00 3.7811164983721937e+00 9.1242587796156582e-01 0 1 1
1038 2 5.8017814207976492e+00 3.6488548058238610e+00 2.5241255462180489e-02 0 1 1
257 1 2.8629128213103905e-01 2.9232860202177000e+00 4.1760343133039397e+00 1 1 0
260 1 2.6596743526099353e-01 1.1244430259980704e+00 3.1158194536310337e+00 1 1 0
266 1 5.3030748766216718e-02 3.8742672106017819e+00 5.3589258215474933e+00 1 1 0
282 2 -1.8901164434154238e-01 3.7121630971809934e+00 4.4442786364067359e+00 1 1 0
283 2 1.0554745196061615e+00 1.3032297431040167e+00 3.6512533919417631e+00 1 1 0
545 1 -1.0755431964033633e+00 3.0275348547243137e+00 8.7180056795944960e+00 1 1 0
548 1 -1.3504532829804312e+00 1.1183000487977270e+00 7.4155026371867878e+00 1 1 0
571 2 -5.8187385491290700e-01 1.2200778239447985e+00 7.9768853083358184e+00 1 1 0
1130 1 1.5695075753867214e+00 3.8671226361485167e+00 8.5130273787822652e-01 1 1 1
341 1 5.5198552208224765e+00 1.3387116643972918e+01 8.4395893268940387e+00 0 0 0
159 1 3.3119699482675937e+00 6.6624925661052314e+00 5.2082427176513102e+00 0 1 0
163 1 4.7847334836545912e+00 5.4420500153864770e+00 4.1354106530518813e+00 0 1 0
167 1 4.6621209269362440e+00 6.7133835977763940e+00 3.2447914597878094e+00 0 1 0
170 2 4.7860272736063223e+00 6.4080192236374227e+00 4.1705868761721412e+00 0 1 0
451 1 3.9859243719599542e+00 5.7065077915506421e+00 8.0438377057625221e+00 0 1 0
455 1 3.0965480132989920e+00 6.8700455057098964e+00 7.6684587886904367e+00 0 1 0
458 2 3.3855249014388580e+00 6.3567873385702640e+00 8.4477920757182865e+00 0 1 0
1023 1 4.8429176610906906e+00 6.6572620307398136e+00 8.7637020150116995e-01 0 1 1
267 1 -1.2103022369355279e+00 6.6725052872866719e+00 5.0904064051631428e+00 1 1 0
271 1 4.2110376953499262e-01 5.5549451927099529e+00 3.9732043858528985e+00 1 1 0
275 1 8.5121836433295295e-02 6.8528054513186936e+00 3.1814880564227725e+00 1 1 0
278 2 3.3894965267072830e-01 6.5193684140703505e+00 4.0630946761966706e+00 1 1 0
559 1 -1.1958703654404848e+00 5.5130840971772495e+00 8.5308557674931400e+00 1 1 0
563 1 -1.2974098294017704e+00 6.7955414778144645e+00 7.6540086243289460e+00 1 1 0
566 2 -1.1301825269683987e+00 6.4836198572962633e+00 8.5481634015717010e+00 1 1 0
1131 1 2.8870590554654513e-01 6.7230135752824607e+00 7.5624477177171356e-01 1 1 1
1 1 4.0376513468360633e+00 9.1693974064026094e+00 2.9952532858332588e+00 0 0 0
20 1 4.0546045782793261e+00 1.0362346680854206e+01 6.1774424929842038e+00 0 0 0
22 1 3.8703382393585546e+00 9.0416264800070092e+00 5.3306536416092669e+00 0 0 0
36 2 4.0619474239794684e+00 9.3885247761455677e+00 6.2118990418792288e+00 0 0 0
289 1 2.6179108312090924e+00 9.1851626761452039e+00 7.3922001649005216e+00 0 0 0
884 1 5.5743291245909683e+00 1.0417143033509054e+01 1.6873395029320766e+00 0 0 1
886 1 5.3836195835995673e+00 9.0671456553432730e+00 1.0199007363897625e+00 0 0 1
900 2 5.5573541092416017e+00 9.4677532418811214e+00 1.8699721292947802e+00 0 0 1
109 1 -4.0185667701231198e-01 9.5175248085818396e+00 2.9307017368178987e+00 1 0 0
128 1 -3.4558514243152261e-01 1.0340488198115048e+01 6.1086312082346721e+00 1 0 0
130 1 -5.8046839987830756e-01 9.0562066138721633e+00 5.3451766537694532e+00 1 0 0
144 2 -3.7231740516682255e-01 9.3742841687131264e+00 6.2381842834280130e+00 1 0 0
397 1 -1.8933328622135117e+00 9.1858952879334765e+00 7.2476375985552188e+00 1 0 0
992 1 1.6965573065844979e+00 1.0221462878998429e+01 1.3225264006095347e+00 1 0 1
994 1 8.3796405368315985e-01 9.0177670364728204e+00 1.0275436983273356e+00 1 0 1
1008 2 1.1745590216054644e+00 9.5222823901307603e+00 1.7826017431741370e+00 1 0 1
4 1 4.1369432124953232e+00 1.2837798112808553e+01 6.2781686779644970e+00 0 0 0
9 1 3.9067936623094237e+00 1.4728756748227985e+01 5.1662473627545475e+00 0 0 0
16 1 5.3428474012998786e+00 1.2175864099241513e+01 2.9732093201205347e+00 0 0 0
25 2 4.6882214640420283e+00 1.4578099788650819e+01 5.7078522669863965e+00 0 0 0
35 2 5.1217566670629218e+00 1.2269211907535865e+01 2.0397521650181663e+00 0 0 0
304 1 3.9859709494650639e+00 1.1970316689563951e+01 7.5373129066874078e+00 0 0 0
323 2 3.6580474987577087e+00 1.2064378028511825e+01 6.6189641594728323e+00 0 0 0
868 1 5.5815258965472045e+00 1.3086106317999063e+01 1.7415603396472781e+00 0 0 1
873 1 5.5012235733276711e+00 1.4855710693696127e+01 7.5531934231196374e-01 0 0 1
889 2 6.2297952135915278e+00 1.4647185148897460e+01 1.3558410584908145e+00 0 0 1
112 1 -3.1788193777334928e-01 1.2940883813322191e+01 6.1722894433976938e+00 1 0 0
117 1 -4.1886084297546633e-01 1.4790112748564109e+01 5.2199093811353299e+00 1 0 0
124 1 4.2734045202932602e-01 1.2081602578344096e+01 3.2272104519062452e+00 1 0 0
133 2 3.3751935055837201e-01 1.4587917269321931e+01 5.7810723983649090e+00 1 0 0
143 2 -6.1481996296878783e-02 1.2648786507922129e+01 2.6043623875720021e+00 1 0 0
412 1 -5.5447592904145382e-01 1.2074443378560174e+01 7.4225079483168637e+00 1 0 0
431 2 -8.1256476476803408e-01 1.2141182782436767e+01 6.4923178803342774e+00 1 0 0
976 1 6.3983739512428517e-01 1.3204500072835499e+01 2.1921050785094547e+00 1 0 1
981 1 1.1206021223691127e+00 1.4647355508507525e+01 7.1463426390066265e-01 1 0 1
997 2 1.8169563272470499e+00 1.4392688114444008e+01 1.3566621493165651e+00 1 0 1
156 1 1.7832347036607232e+00 1.3784804509751780e+00 3.0020388184064961e+00 0 1 0
162 1 1.7138600479442361e+00 2.4460218637778719e+00 6.3537702270825767e+00 0 1 0
168 1 1.4944356016913316e+00 1.2151178357935881e+00 5.4473954269444622e+00 0 1 0
171 2 1.6513918294186900e+00 1.4723557457865566e+00 6.3864579431841175e+00 0 1 0
444 1 1.9029961847506982e-01 1.2488302613888793e+00 7.3836358584251478e+00 0 1 0
1026 1 3.2313907676152898e+00 2.5459302390037064e+00 1.8460174456224467e+00 0 1 1
1032 1 3.0134444838607348e+00 1.2703574144154688e+00 1.0101791128858360e+00 0 1 1
1035 2 3.1881691306840518e+00 1.5717146300528833e+00 1.9298431185636435e+00 0 1 1
192 1 6.2189425590385019e+00 1.2111880236344208e+00 3.0112791937949765e+00 0 1 0
198 1 6.9000397905490347e+00 2.0900249159045252e+00 5.8790105257958842e+00 0 1 0
204 1 5.9957459366537815e+00 8.9202071232270574e-01 5.5604372197574490e+00 0 1 0
207 2 6.3376788011218927e+00 1.3987010026525308e+00 6.3169438739301693e+00 0 1 0
480 1 4.7224241357717389e+00 1.5326924656785190e+00 7.4427820877400404e+00 0 1 0
1062 1 7.7769184878857311e+00 2.3169472256542547e+00 1.8010853356537608e+00 0 1 1
1068 1 7.4944457203152917e+00 1.0488661850777028e+00 9.8515813183090184e-01 0 1 1
1071 2 7.6454845480179516e+00 1.3601377907569219e+00 1.8853891716590727e+00 0 1 1
146 1 3.1370552296921250e+00 4.1745534703621363e+00 3.2892097588570941e+00 0 1 0
150 1 1.9011436737662173e+00 5.0493966050529639e+00 6.4708727348531365e+00 0 1 0
155 1 1.7805861330750279e+00 6.8931299873679608e+00 5.2081879895172145e+00 0 1 0
173 2 2.7435119586109531e+00 4.3749640818701989e+00 2.4165464965946084e+00 0 1 0
177 2 2.5303610284576519e+00 6.6934173664469396e+00 5.7906582647402702e+00 0 1 0
434 1 1.6281881820637674e+00 4.1383657526026081e+00 7.7424879724621629e+00 0 1 0
461 2 1.4193728432920616e+00 4.2516091942466359e+00 6.7905671399974912e+00 0 1 0
1014 1 3.2365144601504117e+00 5.1445676769322350e+00 2.0777752140019889e+00 0 1 1
1019 1 3.3106547481917490e+00 6.8512476546432692e+00 8.7724001578854416e-01 0 1 1
1041 2 4.0736200155568341e+00 6.7257994646849690e+00 1.4799645104359276e+00 0 1 1
182 1 7.6022281321150391e+00 3.9735088621560370e+00 3.2501430045305177e+00 0 1 0
186 1 5.8874692707428800e+00 5.2904136405503088e+00 6.6636698609080174e+00 0 1 0
191 1 6.3417132657536772e+00 6.6670192094501433e+00 5.1241905320698589e+00 0 1 0
209 2 7.4257899875036131e+00 4.1054334055063402e+00 2.2845612941587605e+00 0 1 0
913 1 7.0089387195586097e+00 1.4666247520179281e+01 7.5829861158966838e-01 0 0 1
470 1 5.7686911344548815e+00 4.1396776618432582e+00 7.6722558968570800e+00 0 1 0
497 2 5.2363339183211934e+00 4.6840994864851000e+00 7.0660543307043184e+00 0 1 0
1050 1 7.8942359305179952e+00 4.9330365719162268e+00 2.0688169903616207e+00 0 1 1
1055 1 7.6999039836669532e+00 6.7202616476854757e+00 8.1915676612957922e-01 0 1 1
1077 2 8.4523808711830384e+00 6.5798458349754387e+00 1.3990460894430961e+00 0 1 1
3 1 2.2287710109559162e+00 1.1690130801939931e+01 5.2415180444123388e+00 0 0 0
7 1 2.4855903466031357e+00 1.0825150587772750e+01 3.9995312247849952e+00 0 0 0
10 1 2.5120012994148695e+00 8.8845902165262274e+00 2.9627850406280043e+00 0 0 0
32 2 1.9454882745106870e+00 1.1568774270715378e+01 4.3209653789076095e+00 0 0 0
34 2 3.2357606005160564e+00 9.1556635126154085e+00 3.5604927832065818e+00 0 0 0
295 1 1.1391089361610209e+00 1.0758918936274812e+01 8.5383094105964243e+00 0 0 0
298 1 1.1172997030951057e+00 8.9443518449264658e+00 7.3795806420227077e+00 0 0 0
322 2 1.8435615448602349e+00 9.1050078354739039e+00 7.9825539992628691e+00 0 0 0
867 1 3.6225638789994377e+00 1.1605669871512623e+01 1.0855166331499764e+00 0 0 1
896 2 3.0681144553593604e+00 1.1155207958676458e+01 4.2721918650796592e-01 0 0 1
39 1 6.8606688064773778e+00 1.1750570964817562e+01 5.3778876761314560e+00 0 0 0
43 1 7.0561404680632451e+00 1.0855664188013550e+01 4.1188169056686474e+00 0 0 0
46 1 6.9467764739100861e+00 8.9884742910639517e+00 3.0777014241716252e+00 0 0 0
68 2 6.5891000645511060e+00 1.1639832420153899e+01 4.4466556133515125e+00 0 0 0
352 2 5.4848271986325337e+00 1.4356708264318087e+01 8.5193370504962722e+00 0 0 0
331 1 5.5364740192700967e+00 1.0737257118184555e+01 8.6656589663578760e+00 0 0 0
334 1 5.4010596694447708e+00 8.9857304338701898e+00 7.2799167574301880e+00 0 0 0
358 2 6.1141088420064955e+00 9.0297196346536470e+00 7.9351393862078590e+00 0 0 0
903 1 8.2047884783781093e+00 1.1688525077538268e+01 8.0924504936418429e-01 0 0 1
64 2 6.9079247274573383e+00 1.4374352854166572e+01 4.0188584196039221e+00 0 0 0
13 1 1.0670055892602970e+00 1.4583696985324279e+01 5.1511356599605929e+00 0 0 0
17 1 2.4161175415876746e+00 1.3419982084402136e+01 4.0179220723146809e+00 0 0 0
21 1 2.3047207193063688e+00 1.4725031422582168e+01 3.1811914315487355e+00 0 0 0
28 2 2.4686732960805040e+00 1.4388956473585369e+01 4.0847201292166693e+00 0 0 0
305 1 9.9134549861303567e-01 1.3362968658296477e+01 8.4457282585331281e+00 0 0 0
309 1 7.8173888189345675e-01 1.4650604665427375e+01 7.6325387483496794e+00 0 0 0
316 2 8.8037099053463974e-01 1.4332636261988590e+01 8.5417153591221169e+00 0 0 0
877 1 2.6136228964758192e+00 1.4222432333612238e+01 8.1971740216586475e-01 0 0 1
49 1 5.4175029473702727e+00 1.4524882960841623e+01 5.0651682391618627e+00 0 0 0
53 1 6.9794495451268874e+00 1.3414278297395397e+01 3.9078703258706842e+00 0 0 0
57 1 6.7114844595383278e+00 1.4709798686642619e+01 3.1483214255340268e+00 0 0 0
446 1 2.8013316208595471e+00 3.7204692861750250e+00 9.9695003286029191e+00 0 1 0
462 2 2.2537961140837268e+00 3.2436149575105619e+00 9.3192701076389142e+00 0 1 0
725 1 1.8951195417680227e+00 2.9443482657101669e+00 1.2777526373068685e+01 0 1 0
728 1 1.6998453830819011e+00 1.0400607325491722e+00 1.1850305302820241e+01 0 1 0
734 1 1.6870565479136834e+00 3.7753771649683006e+00 1.4045247625061547e+01 0 1 0
750 2 1.4466882748554042e+00 3.7329809146864061e+00 1.3101369268177654e+01 0 1 0
751 2 2.4736821603953816e+00 1.2254610126766130e+00 1.2391874376150950e+01 0 1 0
1013 1 4.4807127735036190e-01 2.7905333334710067e+00 1.7215518564388496e+01 0 1 0
1016 1 2.9764215381558934e-01 9.8845282874956431e-01 1.6095936665662350e+01 0 1 0
1039 2 1.0410711719997767e+00 1.1355542436589336e+00 1.6692620945455118e+01 0 1 0
554 1 -1.3092296935057568e+00 3.9781671303978627e+00 9.9221537920561147e+00 1 1 0
570 2 -1.5369257111650811e+00 3.8333143518616013e+00 8.9944958558951509e+00 1 1 0
833 1 -3.0569191045650017e+00 2.5781967261462149e+00 1.3144313500619555e+01 1 1 0
836 1 -2.5093226386958229e+00 1.0782346491732966e+00 1.1736869003075373e+01 1 1 0
842 1 -3.0495412394195416e+00 3.6027126563540706e+00 1.4284825639583113e+01 1 1 0
858 2 -3.6466526258668650e+00 3.1566239451401814e+00 1.3662237133004442e+01 1 1 0
859 2 -1.8448141703382595e+00 1.4616262049150504e+00 1.2320798420822527e+01 1 1 0
1121 1 -3.9147443680917986e+00 3.0045559452482284e+00 1.7163539796225795e+01 1 1 0
1124 1 -3.9646598077141295e+00 1.0110149769849799e+00 1.6384192191639208e+01 1 1 0
1147 2 -3.2151233968176216e+00 1.4134964237993755e+00 1.6849293764875394e+01 1 1 0
447 1 1.9035695613373669e+00 6.3407760356197018e+00 9.5936526222980092e+00 0 1 0
735 1 3.3190191726082041e-01 6.6508078185547017e+00 1.3996792845573500e+01 0 1 0
739 1 1.8734082225395658e+00 5.5459901731526493e+00 1.2906984109280437e+01 0 1 0
743 1 1.6607850331787803e+00 6.8372225130642423e+00 1.2076028643001175e+01 0 1 0
746 2 1.8665424201122693e+00 6.5112167199710180e+00 1.2963842577552599e+01 0 1 0
1027 1 3.9910848519885089e-01 5.3467717497913583e+00 1.7183918887148451e+01 0 1 0
1031 1 2.0601253884235504e-01 6.6941822274255474e+00 1.6392272390836631e+01 0 1 0
1034 2 3.7889237876914095e-01 6.3183652057384334e+00 1.7276582192287961e+01 0 1 0
555 1 -2.5708049636739272e+00 6.5525397356715676e+00 9.5750642051004924e+00 1 1 0
843 1 -3.9781683643944419e+00 6.3004366875243667e+00 1.3993692164055267e+01 1 1 0
847 1 -1.8787202280862614e+00 5.7223433001100963e+00 1.2427245000129075e+01 1 1 0
851 1 -2.8321544765609810e+00 6.8831916732759044e+00 1.2146511363302327e+01 1 1 0
854 2 -2.4567072128610530e+00 6.3662430368378171e+00 1.2879470618822735e+01 1 1 0
1135 1 -4.0697041467733452e+00 5.5376652179250554e+00 1.7201320914897401e+01 1 1 0
1139 1 -4.1740753511636033e+00 6.8934368096790779e+00 1.6503318737282797e+01 1 1 0
1142 2 -4.0105620616372288e+00 6.4987496762360273e+00 1.7362448145995589e+01 1 1 0
308 1 2.6331885123743795e+00 1.0219435269185057e+01 1.0631170917835085e+01 0 0 0
310 1 2.3349330745568602e+00 8.9410590459156545e+00 9.7658623972926044e+00 0 0 0
324 2 2.5176541733713531e+00 9.2448947854566921e+00 1.0682242587764955e+01 0 0 0
577 1 9.5413511622369329e-01 9.0654941972732725e+00 1.1704240239864999e+01 0 0 0
596 1 1.6573999885397876e+00 1.0014346632828824e+01 1.4585465962122983e+01 0 0 0
598 1 7.4485679208063615e-01 8.8318459244199126e+00 1.4268323669998122e+01 0 0 0
612 2 1.0781309583263994e+00 9.3445393516603481e+00 1.5011536669366436e+01 0 0 0
865 1 -3.9632836562409945e-01 9.4161461092724217e+00 1.6074139058387917e+01 0 0 0
416 1 -2.1501242960972271e+00 1.0405542854259011e+01 1.0593366305410706e+01 1 0 0
418 1 -2.2305350884128048e+00 9.1590532429053084e+00 9.6556082605047653e+00 1 0 0
432 2 -2.0599962933362024e+00 9.4260596822379608e+00 1.0580703354289808e+01 1 0 0
685 1 -3.4905473477116269e+00 9.0876947318654135e+00 1.1726713347233899e+01 1 0 0
704 1 -3.4652592786475767e+00 1.0316420464975730e+01 1.5180480610563933e+01 1 0 0
706 1 -3.6553448202200371e+00 9.0873063992919967e+00 1.4226074774550515e+01 1 0 0
720 2 -3.4661422836808633e+00 9.3368121216864886e+00 1.5150634284299384e+01 1 0 0
973 1 -4.9356615558778580e+00 9.1290715988010600e+00 1.6171426664496927e+01 1 0 0
292 1 2.7877896432452527e+00 1.2785840255684649e+01 1.0807617849501531e+01 0 0 0
297 1 2.4429794816189832e+00 1.4620819082330563e+01 9.5640316416179623e+00 0 0 0
313 2 3.2184832882605163e+00 1.4433292761792540e+01 1.0099193898223977e+01 0 0 0
580 1 7.2454916590094509e-01 1.3046556911342586e+01 1.5419204521663710e+01 0 0 0
585 1 1.1538634686883604e+00 1.4510237998068916e+01 1.3966925944596049e+01 0 0 0
592 1 2.4629616355176500e+00 1.1898273589877096e+01 1.2087834176555441e+01 0 0 0
601 2 1.8647194907705975e+00 1.4300394896531628e+01 1.4579195940615243e+01 0 0 0
611 2 2.3105279803153116e+00 1.1984711649320506e+01 1.1130273994938134e+01 0 0 0
880 1 5.8707985466708301e-01 1.1936901963826358e+01 1.6432993252810089e+01 0 0 0
899 2 7.0846120447350280e-02 1.2415660542055946e+01 1.5774699210535029e+01 0 0 0
400 1 -1.9946698953602715e+00 1.2886915636932432e+01 1.0744850088133644e+01 1 0 0
405 1 -2.0918288339948883e+00 1.4610700172771358e+01 9.5658581895055157e+00 1 0 0
421 2 -1.3079534591024977e+00 1.4468215023417921e+01 1.0145883023810617e+01 1 0 0
688 1 -3.2223318559057748e+00 1.2857395497277359e+01 1.5337202526545624e+01 1 0 0
693 1 -3.4886572492892687e+00 1.4542746867486777e+01 1.4011441899741040e+01 1 0 0
700 1 -2.1677398230050056e+00 1.1965788911103225e+01 1.1985468067412990e+01 1 0 0
709 2 -2.7196603150081682e+00 1.4501910569502202e+01 1.4594269695252562e+01 1 0 0
719 2 -2.5190426843444946e+00 1.2115743815164116e+01 1.1083808009801812e+01 1 0 0
988 1 -3.4450438893611119e+00 1.1875065857038445e+01 1.6576841994765804e+01 1 0 0
1007 2 -3.7057645546153646e+00 1.2062254008227502e+01 1.5641766959980405e+01 1 0 0
450 1 9.8543113382619385e-01 2.2635681451622149e+00 1.0123860593841858e+01 0 1 0
456 1 4.4253793505097061e-02 1.1046964889654258e+00 9.8489705976525261e+00 0 1 0
459 2 3.9345657592627692e-01 1.6259997557991530e+00 1.0582142607496086e+01 0 1 0
732 1 -1.0833499817327095e+00 1.6423621409388904e+00 1.1736997290917158e+01 0 1 0
738 1 -1.1638758464549075e+00 2.3751950497438648e+00 1.4947714543594470e+01 0 1 0
744 1 -1.3152660539784318e+00 1.0489113636799829e+00 1.4178231125337714e+01 0 1 0
747 2 -1.1188792168754280e+00 1.4145897735921213e+00 1.5065937519370607e+01 0 1 0
1020 1 -2.4812476364735088e+00 1.3775415813605321e+00 1.6207756219434049e+01 0 1 0
486 1 4.6772523343646508e+00 2.3421684487961785e+00 1.0570115827848733e+01 0 1 0
492 1 4.5096294546683140e+00 1.0032089821825416e+00 9.8560994002951965e+00 0 1 0
495 2 4.6885764137816004e+00 1.3970421068862258e+00 1.0723327248471019e+01 0 1 0
768 1 3.2356329201007790e+00 1.1753601511020513e+00 1.1784392522679921e+01 0 1 0
774 1 3.2889319171173836e+00 2.4067882463643557e+00 1.4985875802905888e+01 0 1 0
780 1 3.0532278462665277e+00 1.1934350438503292e+00 1.4104471990656133e+01 0 1 0
783 2 3.2273350190593764e+00 1.4327800123402334e+00 1.5040880788943337e+01 0 1 0
1056 1 1.8146979642040515e+00 1.2093743683571363e+00 1.6102813008921096e+01 0 1 0
438 1 2.8979037520221684e-02 5.2647442859668914e+00 1.1035062509202183e+01 0 1 0
443 1 3.8679323103924013e-01 6.7022093915996903e+00 9.5085348091263437e+00 0 1 0
465 2 1.0792143700658352e+00 6.4261934624247026e+00 1.0126673703109189e+01 0 1 0
722 1 -1.8482619123040811e-01 4.2421026043751784e+00 1.2145367734187948e+01 0 1 0
726 1 -1.1380437910653263e+00 4.9890282148454670e+00 1.5134661612104468e+01 0 1 0
731 1 -1.1752580985430199e+00 6.8965876661330858e+00 1.4071429716722697e+01 0 1 0
749 2 -6.7600818893403281e-01 4.7538319875315667e+00 1.1496378826236924e+01 0 1 0
753 2 -4.0779685013177058e-01 6.7229075328067731e+00 1.4640911304899216e+01 0 1 0
1010 1 -1.3071997861759383e+00 3.9998647727774386e+00 1.6297848232570761e+01 0 1 0
1037 2 -1.6045374820646723e+00 4.1758998910627616e+00 1.5376531626542283e+01 0 1 0
474 1 4.8216632332539504e+00 4.9948799372293573e+00 1.0582273541553390e+01 0 1 0
479 1 4.8534711642499850e+00 6.8629645531388208e+00 9.6452490299766751e+00 0 1 0
928 2 2.5776777020020045e+00 1.4304817908726362e+01 1.7255173314221906e+01 0 0 0
758 1 4.5321084202367627e+00 4.1307467100188937e+00 1.1844663714616654e+01 0 1 0
762 1 3.4032224095737345e+00 4.9831916863141341e+00 1.5102796036009215e+01 0 1 0
767 1 3.3212371678565384e+00 6.8259122718754250e+00 1.4000192581281926e+01 0 1 0
785 2 4.3528174128969876e+00 4.1924949414639840e+00 1.0890426657066971e+01 0 1 0
789 2 4.0857036207053685e+00 6.6169435835067958e+00 1.4561408404804554e+01 0 1 0
1046 1 3.3056095343599212e+00 4.0633083355983315e+00 1.6369408961987666e+01 0 1 0
1073 2 2.9224547112103858e+00 4.2111474609467239e+00 1.5475712233068490e+01 0 1 0
291 1 9.8513368826783809e-01 1.1646280578431007e+01 9.7704550733848627e+00 0 0 0
320 2 6.6408008955397957e-01 1.1534161707819482e+01 8.8743321299415783e+00 0 0 0
579 1 -5.0188854508201430e-01 1.1568212749359642e+01 1.4189131962178747e+01 0 0 0
583 1 -3.3457329609077657e-01 1.0689466157657975e+01 1.2922938403729928e+01 0 0 0
586 1 -5.6692069626631891e-01 8.9069401347686501e+00 1.1638851787456382e+01 0 0 0
608 2 -7.8237880406668125e-01 1.1481203341555219e+01 1.3254521442866006e+01 0 0 0
610 2 1.7196270716641582e-01 8.9881388480769751e+00 1.2266423915166675e+01 0 0 0
871 1 -2.1138903282774653e+00 1.0463804214550811e+01 1.7523702088708294e+01 0 0 0
874 1 -1.9059081463450958e+00 9.0131173588659799e+00 1.6122553565334346e+01 0 0 0
898 2 -1.1540527931572129e+00 9.2927849404966025e+00 1.6665645767665502e+01 0 0 0
327 1 5.3218007828647877e+00 1.1778472451082992e+01 9.8357734168049475e+00 0 0 0
356 2 5.0691777245830698e+00 1.1545008909941489e+01 8.9315245474472107e+00 0 0 0
615 1 3.6267214135911514e+00 1.1556441875178649e+01 1.4303709407894011e+01 0 0 0
619 1 3.6222994637366686e+00 1.0456298508771638e+01 1.3226381003875266e+01 0 0 0
622 1 4.0976018186128815e+00 9.0741163376613780e+00 1.1653777727637184e+01 0 0 0
644 2 3.0389550607228681e+00 1.1055875532496231e+01 1.3719863983088873e+01 0 0 0
646 2 4.7937704159531380e+00 9.3601137365396365e+00 1.2259789373499201e+01 0 0 0
907 1 2.6120388324250943e+00 1.0819754107580408e+01 1.7073358934012205e+01 0 0 0
910 1 2.5124259960310296e+00 8.8969937285064287e+00 1.6192446295857856e+01 0 0 0
934 2 3.2733283085898144e+00 9.1343575334090037e+00 1.6742104486804763e+01 0 0 0
301 1 -5.5067215064563468e-01 1.4492677978956218e+01 9.5379425166085401e+00 0 0 0
589 1 -1.9746667456980300e+00 1.4494069675250380e+01 1.3969663380433095e+01 0 0 0
593 1 -4.1561213672072306e-01 1.3260950001840323e+01 1.2893539164399105e+01 0 0 0
597 1 -5.9177266415199181e-01 1.4554730022843447e+01 1.2035876038682815e+01 0 0 0
604 2 -4.2690823284084800e-01 1.4237518990188663e+01 1.2939586375062948e+01 0 0 0
881 1 -1.1925494230650102e+00 1.3526592750599201e+01 1.6796974858936895e+01 0 0 0
885 1 -2.0608892109826455e+00 1.4752780371451982e+01 1.6477732529429630e+01 0 0 0
892 2 -1.7138241744696106e+00 1.4228303619663929e+01 1.7224501959609270e+01 0 0 0
337 1 3.9803091734034814e+00 1.4502178530582015e+01 9.5052333015809012e+00 0 0 0
625 1 2.6302477960527320e+00 1.4107994717460413e+01 1.3997487583171894e+01 0 0 0
629 1 4.6446539760963272e+00 1.3563873629239790e+01 1.2413286931621007e+01 0 0 0
633 1 3.8021670115003037e+00 1.4767425490474327e+01 1.2134056198548238e+01 0 0 0
640 2 4.1097551305376046e+00 1.4226529643750832e+01 1.2865209309359873e+01 0 0 0
917 1 2.5367337682712234e+00 1.3330617758173565e+01 1.7131268575667029e+01 0 0 0
921 1 2.4874010272546636e+00 1.4673531621446399e+01 1.6369281701177510e+01 0 0 0
573 2 -3.3378509322831129e+00 6.5192984726237144e+00 1.0169271809197815e+01 1 1 0
861 2 -4.7651717865129362e+00 6.5010729406477203e+00 1.4509320981747312e+01 1 1 0
437 1 2.8892094482537698e+00 2.6756899161554100e+00 8.8613443281079398e+00 0 1 0
1146 2 -4.4256618822808189e+00 3.7731788302274794e+00 1.7469367828433828e+01 1 1 0
932 2 2.1167109078653183e+00 1.1573358641701061e+01 1.7439518261818822e+01 0 0 0
5 1 4.5354192168482754e+00 1.8500387834888340e+01 4.3838469398492910e+00 0 0 0
8 1 4.8485204197024796e+00 1.6992255739930219e+01 2.8249932584520678e+00 0 0 0
14 1 4.4028420622683173e+00 1.9580682647291926e+01 5.4739633584832852e+00 0 0 0
30 2 3.8981454347451248e+00 1.9087635805755681e+01 4.8201584233342958e+00 0 0 0
31 2 5.5501900013596099e+00 1.7270668425851127e+01 3.4425525025510910e+00 0 0 0
293 1 3.3488137688657154e+00 1.8715797053493297e+01 8.1432154733591009e+00 0 0 0
296 1 3.3058203187273749e+00 1.6742089026956624e+01 7.2504557261476510e+00 0 0 0
319 2 4.0200890840512251e+00 1.6983924279704500e+01 7.8600376526008215e+00 0 0 0
878 1 6.0281762986727134e+00 1.9782065775142044e+01 9.9242195643292785e-01 0 0 1
894 2 5.8268051264478196e+00 1.9603067875339704e+01 5.3253341860784523e-02 0 0 1
113 1 5.2772594243631410e-01 1.8619325850026243e+01 3.9966762576891632e+00 1 0 0
116 1 1.5330870098954053e-01 1.6923437835269191e+01 2.7542964179457337e+00 1 0 0
122 1 3.3340148957978100e-01 1.9631341289609381e+01 5.1832311927951009e+00 1 0 0
138 2 1.5532786428166423e-01 1.9494104555731145e+01 4.2249094606662263e+00 1 0 0
139 2 8.9207171970738686e-01 1.6955375680016306e+01 3.3917395803037431e+00 1 0 0
401 1 -1.2154728110610415e+00 1.8483693631645654e+01 8.6352528175075527e+00 1 0 0
404 1 -9.8832608042553738e-01 1.7003636833324602e+01 7.2164296539131616e+00 1 0 0
427 2 -2.3360840429145480e-01 1.7227593557553440e+01 7.7814176711803098e+00 1 0 0
986 1 1.7789937619238647e+00 1.9708246934640780e+01 9.3158913147619460e-01 1 0 1
1002 2 1.4257203190287158e+00 1.9579164573593168e+01 3.2757286694734530e-02 1 0 1
15 1 3.3723877864068044e+00 2.2353696064926741e+01 5.0720858718536679e+00 0 0 0
19 1 5.4762759566989425e+00 2.1756152605229786e+01 3.5641556432122927e+00 0 0 0
23 1 4.6990414647983592e+00 2.3070820246500027e+01 3.4168456077042686e+00 0 0 0
26 2 4.9933513324011685e+00 2.2439159669807012e+01 4.0780420485212536e+00 0 0 0
307 1 3.4373669760322940e+00 2.1287397320166207e+01 8.1645324810208972e+00 0 0 0
311 1 3.2601969087867171e+00 2.2660267532111490e+01 7.4669805041474753e+00 0 0 0
314 2 3.4612594244568076e+00 2.2245679153860625e+01 8.3251676787871780e+00 0 0 0
879 1 4.7831798915406711e+00 2.2532028492759654e+01 7.3790175386570978e-01 0 0 1
123 1 -1.0303265715802099e+00 2.2480129251708831e+01 5.0148430730211064e+00 1 0 0
127 1 4.9251691705369494e-01 2.1379060447523507e+01 3.8234458370865978e+00 1 0 0
131 1 2.7760200179248684e-01 2.2658113898917751e+01 2.9967500907471587e+00 1 0 0
134 2 4.2401175391512780e-01 2.2343147853412038e+01 3.9126853580128444e+00 1 0 0
415 1 -2.8477162005067003e-01 2.1754150878995890e+01 7.8281200565591034e+00 1 0 0
419 1 -1.1719117758122048e+00 2.2943622293581239e+01 7.5355819250783016e+00 1 0 0
422 2 -7.7986906499852915e-01 2.2448879335885827e+01 8.2773550064446688e+00 1 0 0
987 1 3.7172398744437896e-01 2.2427987510438381e+01 5.2729737339280336e-01 1 0 1
145 1 4.1747530150411771e+00 2.5330130670352428e+01 2.8459228085883090e+00 0 0 0
164 1 4.2757228792370725e+00 2.6122833569337303e+01 6.0778864224781435e+00 0 0 0
166 1 4.0188746720414557e+00 2.4800014657776405e+01 5.3571906595444636e+00 0 0 0
180 2 4.1672873844786453e+00 2.5163529253557900e+01 6.2370475226290862e+00 0 0 0
433 1 2.6360392458781114e+00 2.4998585200148547e+01 7.2835188482203082e+00 0 0 0
1028 1 6.2066923562209624e+00 2.6050099526166676e+01 1.3035711465618769e+00 0 0 1
1030 1 5.3121723102461740e+00 2.4880774333808166e+01 8.7957697248162747e-01 0 0 1
1044 2 5.6572119199992530e+00 2.5320661901224359e+01 1.6708706101783606e+00 0 0 1
253 1 -2.9191950980943815e-01 2.5028932386055349e+01 2.8709885829921151e+00 1 0 0
272 1 4.1147368298114206e-01 2.6002427385291643e+01 5.6952865095523668e+00 1 0 0
274 1 -4.6230583027227623e-01 2.4801445729122822e+01 5.3489808113699633e+00 1 0 0
288 2 -1.6796806924472851e-01 2.5318282321423339e+01 6.1071460156253075e+00 1 0 0
541 1 -1.6767472018721885e+00 2.5387706563778849e+01 7.2081077662121187e+00 1 0 0
1136 1 1.2175720135268393e+00 2.6222174756458898e+01 1.8384394677673062e+00 1 0 1
1138 1 1.1012199551071189e+00 2.4990799623328471e+01 9.1374085297266605e-01 1 0 1
1152 2 1.2630048606029987e+00 2.5242291415273478e+01 1.8363674607126785e+00 1 0 1
148 1 4.2468572844774943e+00 2.8793027911886764e+01 6.1064003796091333e+00 0 0 0
153 1 4.2097004867401671e+00 3.0779654303553610e+01 5.1440179859321340e+00 0 0 0
160 1 5.0313262389887736e+00 2.7970103069632053e+01 3.1219667688252826e+00 0 0 0
169 2 4.9553883308482529e+00 3.0519460908824641e+01 5.7014519225913727e+00 0 0 0
179 2 4.4725870374252716e+00 2.8523419736547631e+01 2.5530018210105259e+00 0 0 0
448 1 4.1223659177135543e+00 2.7903909599100402e+01 7.3689406082179021e+00 0 0 0
467 2 3.8026075306920619e+00 2.7987170265816513e+01 6.4557929344047880e+00 0 0 0
1012 1 5.0924781417904468e+00 2.9142558586588390e+01 2.1291174205700765e+00 0 0 1
1017 1 5.5818001818347174e+00 3.0475149731942668e+01 4.8953948413820175e-01 0 0 1
1033 2 6.2724633633525979e+00 3.0277283251372527e+01 1.1416503563937606e+00 0 0 1
256 1 -7.7096469896842978e-01 2.9187938062970286e+01 6.5105887155554347e+00 1 0 0
261 1 -3.1187681819910273e-01 3.0574736423187691e+01 4.9509882996936225e+00 1 0 0
268 1 1.1296014733629782e+00 2.7859701390073585e+01 3.3250659162161194e+00 1 0 0
277 2 4.0432890022592405e-01 3.0457178759901776e+01 5.6086955523553854e+00 1 0 0
287 2 9.0846449487307013e-01 2.7995154037534444e+01 2.3848924956113002e+00 1 0 0
556 1 -8.0950970759460672e-01 2.8014599797507884e+01 7.5104131163776007e+00 1 0 0
575 2 -1.3886129748406209e+00 2.8572346389060456e+01 6.9615800641382792e+00 1 0 0
1120 1 1.3640113461805550e+00 2.8822198019601053e+01 2.0934405995521459e+00 1 0 1
1125 1 1.0952265260493819e+00 3.0672003498270520e+01 7.2345371332522290e-01 1 0 1
1141 2 1.8567615144791525e+00 3.0487131772249917e+01 1.2994788870409999e+00 1 0 1
12 1 1.6904335257728897e+00 1.7064691767912770e+01 2.8198028219978166e+00 0 0 0
18 1 2.5761438316394534e+00 1.8008158809089323e+01 5.5745452635640369e+00 0 0 0
24 1 1.6059621220365874e+00 1.6926168723237911e+01 5.1458087586588679e+00 0 0 0
27 2 1.9775249619750246e+00 1.7320227927533995e+01 5.9541890270638298e+00 0 0 0
300 1 5.1471873448346495e-01 1.7375134438659831e+01 7.1545406150148310e+00 0 0 0