LAMMPS data file via write_data, version 5 Jun 2019, timestep = 0

2268 atoms
2 atom types

0.0000000000000000e+00 2.7185795854280698e+01 xlo xhi
0.0000000000000000e+00 2.2972154889498299e+01 ylo yhi
0.0000000000000000e+00 2.9029816971830300e+01 zlo zhi
-1.2846225150256499e-02 -1.1236508126905800e+01 6.0274842777597697e-02 xy xz yz

Masses

1 1.008
2 15.9994

Atoms # atomic

1 2 6.2824611763930296e+00 1.0388094394530993e+00 4.8963228174496090e+00 0 0 0
2 1 5.3319612834871828e+00 8.7637488360961346e-01 5.0458955933048086e+00 0 0 0
3 1 6.2935585161337047e+00 1.4581691903541023e+00 4.0139263510506096e+00 0 0 0
4 2 3.5334942362942399e+00 1.0843197555303929e+00 5.2099188367607026e+00 0 0 0
5 1 2.9022342672492489e+00 3.4991446845286039e-01 5.0755936062273079e+00 0 0 0
6 1 3.3117894942196728e+00 1.7824256521788135e+00 4.5713086426256071e+00 0 0 0
7 2 -1.1625739086819160e+00 6.4599822671801084e+00 4.9863307240827011e+00 0 0 0
8 1 -2.4668128771942488e-01 6.7495696942159658e+00 4.8366032195124031e+00 0 0 0
9 1 -1.7410870532539715e+00 7.2338806698558100e+00 4.8636414790104388e+00 0 0 0
10 2 1.6448371755644651e+00 6.6053659984620232e+00 4.6254485984371092e+00 0 0 0
11 1 1.8765857167260163e+00 5.8940577430477168e+00 5.2485723647913511e+00 0 0 0
12 1 2.2689116136639367e+00 7.3403450523507310e+00 4.7727486438239524e+00 0 0 0
16 2 5.3488834210501244e+00 5.0060786638106851e+00 1.1948468542772196e-01 0 0 0
18 1 5.3236349359601896e+00 5.4465454177353489e+00 9.9006306398731581e-01 0 0 0
19 2 9.1569870201123782e-01 2.9076218220826053e+00 7.6187020799563215e-02 0 0 0
21 1 8.9961206700238083e-01 2.4327477522239667e+00 9.2963706944529712e-01 0 0 0
27 1 4.4178653744122460e+00 6.1490077926839115e+00 6.4538263722667173e+00 0 0 0
28 2 5.5560576116414184e+00 6.5529604566153470e+00 2.4483170002319121e+00 0 0 0
29 1 4.8662688358512183e+00 7.2222182208068197e+00 2.2797751717364050e+00 0 0 0
30 1 5.3914421145135289e+00 6.1823830641275617e+00 3.3348563540078096e+00 0 0 0
31 2 1.0983223365608421e+00 1.2337794233544572e+00 2.3161091004866208e+00 0 0 0
32 1 4.3949613840428903e-01 5.3882172118771188e-01 2.1243141227641091e+00 0 0 0
33 1 8.9835804728170299e-01 1.5690443546997119e+00 3.2077041648806768e+00 0 0 0
35 1 -1.4544259049358343e-01 1.6052200578871489e+00 6.4294256361927298e+00 0 0 0
37 2 6.0075480535827337e+00 2.5359469823612568e+00 2.5467995881100376e+00 0 0 0
38 1 6.6799779298550224e+00 3.2247645978906232e+00 2.7040490918984053e+00 0 0 0
39 1 6.1853636510071262e+00 2.1681460238841410e+00 1.6652658693016154e+00 0 0 0
41 1 3.6699480612970730e+00 2.0810651111326615e+00 6.6671818875306981e+00 0 0 0
45 1 -9.5637908340925870e-01 5.5974650773250314e+00 6.5847672207914307e+00 0 0 0
46 2 1.5666310968002155e+00 4.9863279734464045e+00 2.3643578856864105e+00 0 0 0
47 1 1.6682529660067380e+00 5.6601479534080585e+00 3.0656189153898579e+00 0 0 0
48 1 6.5763951901863027e-01 4.6681867328239068e+00 2.5165452196791684e+00 0 0 0
49 2 6.3127180407703580e+00 3.4869041699016412e+00 6.3609430882377316e+00 0 0 0
50 1 6.4984416179285587e+00 2.6585689042885452e+00 5.8842569401761500e+00 0 0 0
51 1 5.4918958871921255e+00 3.2813977611265059e+00 6.8515424412791068e+00 0 0 0
52 2 3.5045054876328043e+00 3.3517964148844643e+00 3.5840390130747184e+00 0 0 0
53 1 4.2479909497906760e+00 3.1154214660053445e+00 3.0022697791632971e+00 0 0 0
54 1 2.8189371486311989e+00 3.8000857418495881e+00 3.0564227126391623e+00 0 0 0
55 2 -9.4106414536617022e-01 4.2475844850729692e+00 3.2809052359683220e+00 0 0 0
57 1 -1.2445585255859368e+00 5.0044266779987989e+00 3.8108166232421201e+00 0 0 0
58 2 1.7945863393862775e+00 4.3103957390321144e+00 6.1885058084926010e+00 0 0 0
59 1 2.5102696678915977e+00 3.8702151268460439e+00 6.6870419789608624e+00 0 0 0
60 1 1.0587612289349742e+00 4.4815631590643594e+00 6.7993681352935695e+00 0 0 0
61 2 8.1108150109345285e+00 7.2124768561320884e+00 1.5989621687499957e+00 0 0 0
62 1 7.2690406173050892e+00 7.0161307187757807e+00 2.0520635056640506e+00 0 0 0
63 1 8.2701126891714747e+00 6.4204874403160348e+00 1.0502213863143155e+00 0 0 0
70 2 3.6260849259292951e+00 5.0423808316571694e-01 1.4022989618608901e+00 0 0 0
71 1 2.8226841721576870e+00 7.6294700860655973e-01 1.8917495360575136e+00 0 0 0
72 1 3.8374361996533604e+00 1.2885608072747115e+00 8.6291517077149671e-01 0 0 0
73 2 4.9255319876330992e+00 5.3518644670764237e+00 4.8932020103584524e+00 0 0 0
74 1 5.5755976025495162e+00 4.7558293542604764e+00 5.3130319247340987e+00 0 0 0
75 1 4.2903489296734030e+00 4.7145221175899508e+00 4.5141484768155973e+00 0 0 0
76 2 3.5428149562842126e-01 2.3675631568644535e+00 4.8087236682983070e+00 0 0 0
77 1 1.0017815692288585e+00 2.9767697884524651e+00 5.2095183875537785e+00 0 0 0
78 1 -2.4198019991902053e-01 2.9897707832621414e+00 4.3464596993558375e+00 0 0 0
79 2 6.6965130678668014e+00 1.3569473867794128e+00 8.1861861971198838e-02 0 0 0
82 2 2.1698957896582858e+00 6.3938224742549714e+00 2.7571496129610781e-02 0 0 0
84 1 1.8602267529382916e+00 5.8057180479545911e+00 7.4014063898200355e-01 0 0 0
91 2 7.9219399990656623e+00 6.5865746153423803e+00 4.9137708312119370e+00 0 0 0
92 1 8.8622580642188282e+00 6.7925313972263393e+00 4.7531661217432823e+00 0 0 0
93 1 7.9452119662984160e+00 6.1810469769806318e+00 5.8027104457146752e+00 0 0 0
94 2 1.0687265581571976e+01 6.6109804286884417e+00 4.5806468954381598e+00 0 0 0
95 1 1.1292882376862906e+01 7.3573600567640911e+00 4.7615960260435273e+00 0 0 0
96 1 1.0886861446641575e+01 5.9278242891011859e+00 5.2433953680304342e+00 0 0 0
470 1 -2.0648773733264285e+00 1.1406808705908826e+01 6.7196101878513366e+00 1 0 0
105 1 9.7763818611538351e+00 2.4223410664810836e+00 8.7727340564058021e-01 0 0 0
115 2 1.0059478230051779e+01 1.4174472447228310e+00 2.4380549928940245e+00 0 0 0
116 1 9.4602816408711821e+00 6.7147948424603066e-01 2.2509300741775746e+00 0 0 0
117 1 1.0967878827520540e+01 1.1103004045741727e+00 2.2547232333353531e+00 0 0 0
127 2 8.2918018952313162e+00 5.1497925291684350e+00 7.2648274600855007e+00 0 0 0
120 1 8.8635885604268978e+00 1.6612663869988609e+00 6.3846476477902039e+00 0 0 0
305 1 2.7400137519463468e+00 1.1361168027974617e+01 2.8606522704371700e+00 0 0 0
128 1 7.5990978692972853e+00 4.4833532006813837e+00 7.0967100394232823e+00 0 0 0
130 2 1.0492262980091224e+01 5.0946428017516325e+00 2.2543999867847653e+00 0 0 0
131 1 1.0606840199284372e+01 5.7347669251287225e+00 2.9841475502948374e+00 0 0 0
132 1 1.1120322544549211e+01 4.3822353480342100e+00 2.4776912837046097e+00 0 0 0
139 2 7.9473756580272310e+00 4.3253662594664037e+00 3.3002522206453473e+00 0 0 0
140 1 7.7848242065798656e+00 5.1282572468611809e+00 3.8326309051600549e+00 0 0 0
141 1 8.7305155760586377e+00 4.5529195533729396e+00 2.7691173055359326e+00 0 0 0
142 2 1.0789218123571644e+01 4.3517609060342197e+00 6.3264451103690487e+00 0 0 0
143 1 1.0032930257194913e+01 4.6469474100359944e+00 6.8641639096003129e+00 0 0 0
144 1 1.0380595660813359e+01 3.6838324289128042e+00 5.7405808316653824e+00 0 0 0
154 2 1.2550010555066898e+01 6.4386070668991446e-01 1.4970029505543141e+00 0 0 0
160 2 9.3009562059608832e+00 2.5266513233390646e+00 4.8642046889978490e+00 0 0 0
161 1 9.7132014626593719e+00 2.0453546401591134e+00 4.1249523903051299e+00 0 0 0
162 1 8.7149238441966901e+00 3.1516506466563547e+00 4.3948764291264473e+00 0 0 0
168 1 1.1036277581893993e+01 5.8504609186285004e+00 6.1268785961150973e-01 0 0 0
218 1 -2.1090627133450681e+00 3.8191461944178982e+00 6.7635418009102208e+00 1 0 0
253 2 6.2654042242481731e+00 8.8091485764137172e+00 4.7881588852648393e+00 0 0 0
254 1 6.3148498956204380e+00 9.1630663369645706e+00 3.8829386304482214e+00 0 0 0
255 1 6.8328980964643833e+00 8.0157909372423966e+00 4.8157488619640478e+00 0 0 0
256 2 3.4460307140828079e+00 8.7426753543592781e+00 5.0289455663577209e+00 0 0 0
257 1 4.3985240472903682e+00 8.5567969783507216e+00 4.9396536202639432e+00 0 0 0
258 1 3.2839939601100996e+00 9.4427099760046875e+00 4.3681972794648543e+00 0 0 0
271 2 8.1642255462985125e-01 1.0574407542083827e+01 1.5028208252858416e-01 0 0 0
272 1 8.4777308807477159e-01 1.0138045642232290e+01 1.0272538139922571e+00 0 0 0
283 2 1.0792625127020319e+00 9.0065340386267341e+00 2.4013843149443836e+00 0 0 0
284 1 4.0465277979804781e-01 8.3218709594952092e+00 2.2391133861649530e+00 0 0 0
285 1 9.3991886326353802e-01 9.3272228959460168e+00 3.3120726120468045e+00 0 0 0
286 2 -2.7357292165460212e-01 8.9119686640388256e+00 7.2421345343044194e+00 0 0 0
289 2 6.0957118316782344e+00 1.0249514649378268e+01 2.3874727018923685e+00 0 0 0
290 1 5.1493493841969551e+00 1.0460874119315772e+01 2.4617074659857678e+00 0 0 0
291 1 6.2343881433569379e+00 9.8578214873045056e+00 1.5065316438674052e+00 0 0 0
293 1 3.6517451402064767e+00 9.7979852641808325e+00 6.5733649259693143e+00 0 0 0
301 2 6.3899412138456402e+00 1.1117880762465740e+01 6.3820087734415614e+00 0 0 0
302 1 5.5748606413928874e+00 1.0915766825677748e+01 6.8776742295650903e+00 0 0 0
303 1 6.5563737698301665e+00 1.0298911765193417e+01 5.8825076746236062e+00 0 0 0
304 2 3.4935734214824743e+00 1.0894203198513946e+01 3.2617019177232849e+00 0 0 0
311 1 1.4226279788985856e+00 1.1382635300205409e+01 5.8134355495440424e+00 0 0 0
1872 1 1.2804127797817044e+01 9.7479465066871676e+00 4.2606124021201869e-01 0 0 1
322 2 3.5803368304898000e+00 8.2614278169182072e+00 1.4859101911890407e+00 0 0 0
323 1 2.7997170218252525e+00 8.5432274167101383e+00 1.9990866154421765e+00 0 0 0
324 1 3.2050872263731072e+00 7.5847439747163765e+00 8.8941256933732693e-01 0 0 0
328 2 5.8059352668730835e-01 1.0091668147139810e+01 4.8719685318535424e+00 0 0 0
329 1 -9.4677566552413106e-02 1.0686584863823075e+01 4.4885799929986288e+00 0 0 0
330 1 1.8022869468465741e-01 9.6127509154852202e+00 5.6199993044162762e+00 0 0 0
118 2 8.7217129672963427e+00 1.1965393489258613e+00 7.2304076151400167e+00 0 0 0
333 1 7.4271730587040814e+00 8.4511628297048382e+00 4.7891146333409790e-01 0 0 0
355 2 9.8122710181069266e+00 1.0441479045111640e+01 3.0052708946211763e-02 0 0 0
357 1 9.8209026971611326e+00 1.0013230163768675e+01 9.0942705735488072e-01 0 0 0
367 2 1.0100330047147853e+01 8.9742958366005681e+00 2.3617287036256300e+00 0 0 0
368 1 9.9484651071516552e+00 9.3744922051146080e+00 3.2372242744536188e+00 0 0 0
369 1 9.4189365325644747e+00 8.2911788429383595e+00 2.2345825553331600e+00 0 0 0
370 2 8.8463103906597595e+00 8.8668271683058801e+00 7.1259375101502078e+00 0 0 0
1788 1 3.7554239206272961e+00 9.7750291004117358e+00 4.2429334883817221e-01 0 0 1
393 1 8.5170397793843584e+00 1.1321742476846302e+01 3.8628262516421596e+00 0 0 0
406 2 1.2688689691602525e+01 8.2333617383188855e+00 1.5152635256778682e+00 0 0 0
407 1 1.2369119371594271e+01 7.5537415585117262e+00 8.8655247354460165e-01 0 0 0
408 1 1.1879978003898112e+01 8.4692414409855576e+00 2.0050297729328737e+00 0 0 0
412 2 9.5409157259122068e+00 1.0177608835047048e+01 4.7735207442372305e+00 0 0 0
413 1 1.0128503426055330e+01 1.0815336234685633e+01 5.2258040646995747e+00 0 0 0
414 1 9.1763756993197205e+00 9.6485699562239322e+00 5.5062944476773943e+00 0 0 0
567 1 7.6581804848520454e+00 2.4553224128250939e-01 1.0181762711923719e+00 0 1 0
1620 1 1.2751314363554014e+01 2.1370820451965482e+00 4.1773408820352109e-01 0 0 1
292 2 3.8500404884983026e+00 1.0465773283471982e+01 7.2572287842207110e+00 0 0 0
13 2 4.4972057447004392e+00 4.8780819993510329e+00 9.5958725155715250e+00 0 0 0
14 1 4.6514657509786623e+00 5.5963074356755182e+00 1.0234332782412171e+01 0 0 0
15 1 4.5138926141225344e+00 5.3389806397694324e+00 8.7355893475565871e+00 0 0 0
22 2 -2.3593907528395963e-02 2.8629386413263687e+00 9.6099706209461129e+00 0 0 0
23 1 -3.0032320726794737e-02 2.4232601933192695e+00 8.7380287278426874e+00 0 0 0
24 1 1.0889833068711718e-01 2.1281598801425217e+00 1.0237344821495492e+01 0 0 0
25 2 4.3105009158150356e+00 6.5330044472180751e+00 7.3429502835680225e+00 0 0 0
26 1 3.3829801179395544e+00 6.8125538070307714e+00 7.4286221925156637e+00 0 0 0
34 2 -2.2788621051662394e-01 1.2381742374498128e+00 7.3273186412416136e+00 0 0 0
36 1 -1.1551155647686815e+00 9.6438541988886506e-01 7.4391580690292392e+00 0 0 0
40 2 3.8108473551566053e+00 2.7982989103132101e+00 7.3178169949788430e+00 0 0 0
42 1 3.6886996270816592e+00 2.3841906304951013e+00 8.1915823199732696e+00 0 0 0
43 2 -7.5936778384935755e-01 4.9585959335295628e+00 7.2966620942953666e+00 0 0 0
44 1 -9.5286654813438743e-01 5.4016355288723039e+00 8.1429349745066926e+00 0 0 0
64 2 1.7891124743523084e+00 7.2996134694371246e+00 8.1882717444823570e+00 0 0 0
65 1 1.0089009503807578e+00 7.7331573245364353e+00 7.7973994278918157e+00 0 0 0
66 1 1.4917902426631806e+00 6.5327871474684009e+00 8.7079268564136303e+00 0 0 0
67 2 -2.7312990334142553e+00 4.8970027708305630e-01 8.2040984818227809e+00 0 0 0
68 1 -3.0339579531202991e+00 1.2469389046707791e+00 8.7355606159624575e+00 0 0 0
106 2 9.1010527599666524e+00 2.6408314310984666e+00 9.5259787128238713e+00 0 0 0
107 1 8.1824376412759481e+00 2.9105393613046253e+00 9.7060572482129448e+00 0 0 0
108 1 9.6551428192887787e+00 3.4413579806983954e+00 9.6122767199524208e+00 0 0 0
119 1 8.8926237134429371e+00 1.8398913175431959e+00 7.9469070468153449e+00 0 0 0
129 1 8.1282512148867294e+00 5.5200798773479240e+00 8.1512611220234117e+00 0 0 0
149 1 1.0028554915595873e+01 7.5662838326366844e+00 7.6500347232716779e+00 0 0 0
151 2 6.2112680544472125e+00 4.9936258538350153e-01 8.3120618079347626e+00 0 0 0
153 1 6.9536199846960365e+00 6.9979238241743624e-01 7.7171123569077169e+00 0 0 0
274 2 4.6786673748666630e-04 1.0511863798361114e+01 9.4842463541523205e+00 0 0 0
275 1 -9.4483533285185084e-01 1.0730079363293976e+01 9.5975695912666303e+00 0 0 0
276 1 1.2377074975852409e-01 9.7583895289939040e+00 1.0094242983308767e+01 0 0 0
287 1 -1.3241135935277359e-01 9.5684530061764406e+00 7.9541477302105381e+00 0 0 0
288 1 -1.1931268208702281e+00 8.6247796785192072e+00 7.4017026523145963e+00 0 0 0
1062 1 -7.6815550008619482e-01 1.1338173439639892e+01 1.2584735780279720e+01 0 0 0
294 1 3.6945126091476532e+00 1.0022537335539736e+01 8.1131167868603171e+00 0 0 0
319 2 -2.7734584030198519e+00 8.1802457633993040e+00 8.2145980702364234e+00 0 0 0
321 1 -2.3936024571992025e+00 7.4907442175056387e+00 8.7940933065917708e+00 0 0 0
358 2 9.1752962796478350e+00 1.0468260806796142e+01 9.3759234187134197e+00 0 0 0
359 1 8.2193757519401025e+00 1.0640687752038241e+01 9.4881826103568159e+00 0 0 0
360 1 9.3481964375166360e+00 9.7278355961268996e+00 9.9877343270361507e+00 0 0 0
371 1 9.0218504834545712e+00 9.5058654886121623e+00 7.8459214452960859e+00 0 0 0
372 1 7.9376313281204425e+00 8.5661864799017806e+00 7.3173502241832491e+00 0 0 0
403 2 6.3876617724779896e+00 8.1365105131117890e+00 8.1635398884654560e+00 0 0 0
404 1 5.5796649269974132e+00 7.7192447098306074e+00 7.8134336445590096e+00 0 0 0
405 1 6.1504231581751032e+00 8.9429732016112062e+00 8.6538025439858792e+00 0 0 0
653 1 1.0000283265345058e+01 8.6704465620651108e-02 7.7944396335745321e+00 0 1 0
757 2 2.5691809061666344e+00 1.0373809681726052e+00 1.4392041536395816e+01 0 0 0
1084 2 -3.4403158274382548e+00 1.0124865487146291e+01 1.4501391090806676e+01 0 0 0
827 1 6.2694008935404089e-01 9.3609667566443358e-02 1.1666482040348219e+01 0 0 0
762 1 -3.8796931459321726e-01 1.8316331749638968e+00 1.4118732950327995e+01 0 0 0
766 2 -1.9881894454117734e+00 6.5717101652108205e+00 1.4306750515622792e+01 0 0 0
772 2 1.6422172528538344e+00 5.0686238525775975e+00 9.8713557519906381e+00 0 0 0
773 1 2.5626229274934400e+00 4.7759393979213698e+00 9.7666309234655024e+00 0 0 0
774 1 1.0761339752319112e+00 4.2760072054462102e+00 9.7942768008738170e+00 0 0 0
775 2 -2.9063667924636478e+00 2.6917527353112862e+00 9.9078286495035108e+00 0 0 0
776 1 -3.4700229776350091e+00 3.4856248547612099e+00 9.8299049003625996e+00 0 0 0
777 1 -1.9907998201726786e+00 2.9879504770226402e+00 9.7878610569690618e+00 0 0 0
784 2 1.9095095637534261e+00 6.6811673741315687e+00 1.2112096704212883e+01 0 0 0
785 1 1.7748329097042488e+00 6.0004643789674006e+00 1.1423452580973919e+01 0 0 0
786 1 1.7886504654414868e+00 6.2366276507649125e+00 1.2969779134463298e+01 0 0 0
787 2 -2.6474376429976232e+00 1.1739981523573797e+00 1.2200062465580942e+01 0 0 0
788 1 -2.8289529642458442e+00 1.7942712557233074e+00 1.1464059517810639e+01 0 0 0
789 1 -1.7204019391574126e+00 9.1733439460017674e-01 1.2037097989618996e+01 0 0 0
793 2 2.3070847702679940e+00 2.5903831759061271e+00 1.2038996761439886e+01 0 0 0
794 1 2.4150489066885905e+00 1.9440611891639952e+00 1.2760676558133664e+01 0 0 0
795 1 2.9675290597326658e+00 3.2735761105455095e+00 1.2265689098609847e+01 0 0 0
802 2 -2.1734809679446614e+00 5.0528400155033806e+00 1.2019966424327400e+01 0 0 0
803 1 -2.0690420604641062e+00 5.6949346405828383e+00 1.2752555141330332e+01 0 0 0
804 1 -3.0944381937460808e+00 4.7534806578563495e+00 1.2129915031951342e+01 0 0 0
808 2 -1.9726635198086395e-01 3.4303939596854294e+00 1.3176494058585243e+01 0 0 0
809 1 5.1582100311418522e-01 3.1946363758114478e+00 1.2561602655705817e+01 0 0 0
810 1 -8.9861022194814133e-01 3.8751626934636105e+00 1.2667627512398463e+01 0 0 0
811 2 -4.7459695497479251e+00 4.2799079121063750e+00 1.2849533776763302e+01 0 0 0
812 1 -4.9346750320178625e+00 5.0598488684445213e+00 1.3403613109775460e+01 0 0 0
813 1 -4.3808808880644978e+00 3.6229186771315383e+00 1.3477088833684565e+01 0 0 0
817 2 4.5559509932794651e+00 7.2217825099262418e+00 1.1231391381303879e+01 0 0 0
818 1 4.2283945341354450e+00 7.8665050077140739e+00 1.0573661729319324e+01 0 0 0
819 1 3.7543268229957372e+00 7.0462639728228558e+00 1.1753918652407553e+01 0 0 0
826 2 -7.8695717897025119e-02 5.9277725648403468e-01 1.1216915274197419e+01 0 0 0
832 2 -3.5062818864461338e+00 2.4282816581378857e+00 1.4499094077509385e+01 0 0 0
830 1 7.1750493688806216e-01 4.6888754392409089e+00 1.4148852082644092e+01 0 0 0
834 1 -3.0838285876094673e+00 1.9298512237071008e+00 1.3773510413536750e+01 0 0 0
835 2 3.2966066551503577e+00 1.4040169080708138e+00 9.6832811788350632e+00 0 0 0
836 1 2.6760949417779303e+00 7.8770040513214823e-01 9.2424816744983396e+00 0 0 0
837 1 2.8172766435212813e+00 1.8577985453742789e+00 1.0399741798709490e+01 0 0 0
838 2 -1.4326391473369759e+00 6.2764344664744023e+00 9.6625291693163309e+00 0 0 0
839 1 -1.8027706899784879e+00 5.7758314034346379e+00 1.0414093417764116e+01 0 0 0
840 1 -8.3835638480265118e-01 6.9205414770415405e+00 1.0094841783314401e+01 0 0 0
850 2 7.0668509597931317e+00 6.5752715771939485e+00 1.4328145806453119e+01 0 0 0
859 2 6.3425946403018774e+00 2.7785008211137532e+00 9.9541978335802916e+00 0 0 0
860 1 5.7093833188466032e+00 3.5113419985328216e+00 9.8429640180653060e+00 0 0 0
861 1 6.0789868308847925e+00 2.0846602269556191e+00 9.3262034327052472e+00 0 0 0
871 2 6.6118945062606365e+00 1.2183959296611147e+00 1.2213411796511592e+01 0 0 0
872 1 6.4827095803427923e+00 1.8695345433813646e+00 1.1493793963985933e+01 0 0 0
873 1 5.9413624165071282e+00 5.3627712692433316e-01 1.2010453650638000e+01 0 0 0
886 2 6.8441258838611763e+00 4.9988029167522496e+00 1.2030230565593129e+01 0 0 0
887 1 6.9615879394974618e+00 5.6664589881309055e+00 1.2731777515299374e+01 0 0 0
888 1 7.0427312188189237e+00 5.4549271790855753e+00 1.1189117214233656e+01 0 0 0
893 1 8.1667036876281180e+00 3.8449300407701847e+00 1.2502986591228266e+01 0 0 0
895 2 4.2794940300434678e+00 4.2885438807959968e+00 1.2958087984971067e+01 0 0 0
896 1 5.0783475662557356e+00 4.5235369134760699e+00 1.2454888994603156e+01 0 0 0
897 1 4.1193188246120487e+00 5.0551693929389634e+00 1.3539681940646418e+01 0 0 0
910 2 9.0955679654278381e+00 3.6533101154018988e-01 1.1124257650154103e+01 0 0 0
911 1 9.2604135809998382e+00 1.1603402259137925e+00 1.0583398313595453e+01 0 0 0
912 1 8.3345924966773630e+00 6.1779905263879742e-01 1.1675745975980181e+01 0 0 0
917 1 5.1533342254882557e+00 3.0874186753608814e+00 1.4051403902676332e+01 0 0 0
918 1 6.1704916204145830e+00 1.9771093284858592e+00 1.3778473325459226e+01 0 0 0
922 2 7.6775812880699768e+00 6.3171133089625870e+00 9.7203797954816995e+00 0 0 0
923 1 8.3265584751147284e+00 6.9331954283333133e+00 1.0112706177689027e+01 0 0 0
924 1 7.0827611685234260e+00 6.9350962349150986e+00 9.2479460089689578e+00 0 0 0
570 1 1.0651985407381193e+00 7.2823859364893648e-02 7.8254485219136676e+00 0 1 0
1011 1 2.7160761794565644e+00 9.0973417675215256e+00 1.3641740562108250e+01 0 0 0
1013 1 -2.6011447944629396e-01 9.3674973620600372e+00 1.4051597810997762e+01 0 0 0
1027 2 -2.7707511153526303e+00 1.0514009555728963e+01 9.8124710625063347e+00 0 0 0
1028 1 -2.9323263627057794e+00 9.7732828265576508e+00 9.2006693088402951e+00 0 0 0
1029 1 -2.7650074083391631e+00 1.0087968824720395e+01 1.0693678136806506e+01 0 0 0
1039 2 -2.5750528054028958e+00 8.9562541587127402e+00 1.2110407619503354e+01 0 0 0
1040 1 -2.7855962785163428e+00 9.3418461863244442e+00 1.2980981419683069e+01 0 0 0
1041 1 -3.2600219055852122e+00 8.2818486347097053e+00 1.1943784097497831e+01 0 0 0
1045 2 2.4954242983142194e+00 1.0079479592025956e+01 1.2060020277343746e+01 0 0 0
1046 1 3.0681702566065683e+00 1.0838303020121721e+01 1.2286305773200713e+01 0 0 0
1047 1 1.5801741010538564e+00 1.0373081079047223e+01 1.2217433386985034e+01 0 0 0
1060 2 -3.4912283677576816e-02 1.0885095850328637e+01 1.3034557764759331e+01 0 0 0
1078 2 -8.8519730013505438e-02 8.2363092638772351e+00 1.1040893978391210e+01 0 0 0
1079 1 -8.3543561844223513e-01 8.4372191563459680e+00 1.1630505130104849e+01 0 0 0
1080 1 6.1069181903787140e-01 7.7893148792367244e+00 1.1555833862244210e+01 0 0 0
1085 1 -4.0280780571855983e+00 1.0740131305748886e+01 1.4021961520283378e+01 0 0 0
1087 2 3.3116486917229233e+00 9.0430537095198424e+00 9.5823054708123987e+00 0 0 0
1088 1 2.6500323565409549e+00 8.4425564843043617e+00 9.1827815467085099e+00 0 0 0
1089 1 2.8930560291871945e+00 9.4764985678264999e+00 1.0346764947797698e+01 0 0 0
1111 2 6.4216912348189599e+00 1.0430245242730063e+01 9.7354675079922739e+00 0 0 0
1112 1 6.4039424615844025e+00 1.0035732033861407e+01 1.0627623967013395e+01 0 0 0
1113 1 5.8034058912422548e+00 1.1182486141972861e+01 9.7414908320246134e+00 0 0 0
1123 2 6.6226589791569292e+00 8.9362039568779341e+00 1.2064659935378865e+01 0 0 0
1124 1 5.9206516819078399e+00 8.2775010683038790e+00 1.1917116176669829e+01 0 0 0
1125 1 6.4344666686351228e+00 9.3499995866981269e+00 1.2926174199091870e+01 0 0 0
1162 2 9.1166357362861543e+00 8.2738627174103812e+00 1.1034476111912097e+01 0 0 0
1163 1 8.3453660040101099e+00 8.4506649961643561e+00 1.1600831009352431e+01 0 0 0
1168 2 5.8813695031288660e+00 1.0228306727131141e+01 1.4413173355961876e+01 0 0 0
1170 1 5.1728600733241308e+00 1.0767742275554641e+01 1.4015450598613549e+01 0 0 0
1323 1 4.1525520685163855e+00 2.3945750647326972e-01 1.0752134425200561e+01 0 1 0
152 1 5.5139896972703628e+00 6.9409660158952960e-02 7.7862254174771124e+00 0 0 0
767 1 -1.3705053228830257e+00 7.3107196365123910e+00 1.4466771726931185e+01 0 0 0
764 1 -3.8565521658743043e+00 6.7585302639978808e+00 1.4476110362828372e+01 0 0 0
851 1 7.6767478087146630e+00 7.3211343091459380e+00 1.4486833056015733e+01 0 0 0
916 2 5.7894930990062932e+00 2.5049547260953546e+00 1.4506451337666153e+01 0 0 0
759 1 2.7450255410802136e+00 1.7682706108310264e+00 1.5014704882510102e+01 0 0 0
760 2 -1.8545952751876094e-01 1.1195329527914142e+00 1.4749995825450702e+01 0 0 0
763 2 -4.7770570943741237e+00 6.4729899267911017e+00 1.4605027219936005e+01 0 0 0
1619 1 2.0200915199785161e+00 3.5686900977388079e+00 2.8899516272471924e+01 0 0 0
1583 1 -3.1142101172449630e+00 2.6498679526459229e-01 2.1367726518266160e+01 0 0 0
1068 1 -1.3237888186392741e+00 1.1430031688171709e+01 1.6444663325695760e+01 0 0 0
768 1 -1.7885648451936040e+00 5.8808221408963606e+00 1.4959800356477473e+01 0 0 0
769 2 7.6419422333316422e-01 5.0533686218793319e+00 1.9213003423699728e+01 0 0 0
770 1 -1.6259420010935965e-01 4.7594682813743256e+00 1.9254733045357924e+01 0 0 0
771 1 1.3377527134328613e+00 4.2689353660402318e+00 1.9315909072797655e+01 0 0 0
778 2 -3.8457310992203428e+00 2.8353539119156448e+00 1.9160011677977614e+01 0 0 0
779 1 -3.7891822883844291e+00 2.3300211591277233e+00 1.8326734480730849e+01 0 0 0
780 1 -3.7072329942159454e+00 2.1574013875893616e+00 1.9847386595201023e+01 0 0 0
781 2 6.0151268251350931e-01 6.5277168476850775e+00 1.6870766246991916e+01 0 0 0
782 1 7.1505666963754511e-01 5.9151373730470720e+00 1.7626039615098943e+01 0 0 0
783 1 -3.1604324160950359e-01 6.8333817749892498e+00 1.6981417490312403e+01 0 0 0
790 2 -3.9522001791202999e+00 1.1024301651373309e+00 1.6948819565930297e+01 0 0 0
791 1 -4.8763819988732982e+00 8.1680720170240639e-01 1.7054428801308585e+01 0 0 0
792 1 -3.8787111424690917e+00 1.4869678196385772e+00 1.6057974410281187e+01 0 0 0
796 2 4.3097035379225268e-02 2.5883468891363810e+00 1.7061498097645519e+01 0 0 0
797 1 9.6505807341041372e-01 2.8630765416121458e+00 1.6905318532740061e+01 0 0 0
798 1 -1.0752649479831522e-01 1.9572397212874308e+00 1.6328746752028596e+01 0 0 0
799 2 -4.4726598763595442e+00 5.0257904506321971e+00 1.6987783859366324e+01 0 0 0
800 1 -5.1268553942358297e+00 4.3261843617426496e+00 1.6805001434381278e+01 0 0 0
801 1 -4.6039274852333527e+00 5.6388291189290527e+00 1.6239856728969521e+01 0 0 0
805 2 2.5798651005777460e+00 3.2467216619757475e+00 1.6067584152724542e+01 0 0 0
806 1 2.2480463059975371e+00 3.9467600546002033e+00 1.5473705179355276e+01 0 0 0
807 1 3.3357404513753623e+00 3.6815609981018440e+00 1.6505733910521588e+01 0 0 0
814 2 -1.9494807524338027e+00 4.2636225655618532e+00 1.5897420317371999e+01 0 0 0
815 1 -1.2591223877334876e+00 3.8093301266038351e+00 1.6409254438109027e+01 0 0 0
816 1 -2.6877903963686220e+00 4.4582173031953873e+00 1.6497640639542876e+01 0 0 0
820 2 -2.0268181321493932e+00 7.2613899918499598e+00 1.7648781860064602e+01 0 0 0
821 1 -2.2114447589147606e+00 6.4612158879499404e+00 1.8171392664048120e+01 0 0 0
822 1 -1.6982614452822347e+00 7.9187182174589790e+00 1.8295522857600563e+01 0 0 0
823 2 -6.4660935898311998e+00 3.4567204284550579e-01 1.7807901562839639e+01 0 0 0
824 1 -6.7635325528594494e+00 1.1552630263796009e+00 1.8253704378247647e+01 0 0 0
831 1 1.0235940769086556e+00 5.7659469723695977e+00 1.5255318140909759e+01 0 0 0
2246 1 -7.6654231246894851e+00 1.7540650242634070e-01 2.1297412705774775e+01 1 1 0
833 1 -2.8359083731329440e+00 3.0260670633000379e+00 1.4881631375328054e+01 0 0 0
847 2 4.3070516138876282e+00 6.4266503745448738e+00 1.4711706771767009e+01 0 0 0
848 1 5.2299749808308347e+00 6.7079851144161609e+00 1.4577909061794390e+01 0 0 0
849 1 3.7467231101380403e+00 7.2236723509431142e+00 1.4670314473231727e+01 0 0 0
103 2 -1.4442899223772407e+00 2.8593490735113614e+00 2.9007660598418507e+01 0 0 -1
852 1 7.2971650983116660e+00 5.8862528823451994e+00 1.4973941117255608e+01 0 0 0
862 2 5.2052768322259908e+00 2.9105828799139166e+00 1.9274887859880391e+01 0 0 0
863 1 5.2277069950810455e+00 2.4742826712799881e+00 1.8399641063880878e+01 0 0 0
864 1 5.3437607969381347e+00 2.1869234683786036e+00 1.9912795737212477e+01 0 0 0
874 2 5.0617092118659075e+00 1.3756888780563037e+00 1.6925790801120296e+01 0 0 0
875 1 5.7135898720498481e+00 6.6855376440937053e-01 1.7070761987975157e+01 0 0 0
876 1 5.2850235277776667e+00 1.7663579361798021e+00 1.6059940661360585e+01 0 0 0
883 2 4.6401479728739643e+00 4.8471292933274315e+00 1.6967739687303279e+01 0 0 0
884 1 4.5136046661831450e+00 5.3214970709213274e+00 1.7810089866060988e+01 0 0 0
885 1 4.4632665087892640e+00 5.4951624596129740e+00 1.6257900956970346e+01 0 0 0
898 2 7.1878075645904875e+00 4.3076977251108319e+00 1.6029199066979327e+01 0 0 0
899 1 6.4094709214149725e+00 4.5292187425034571e+00 1.6573521753575932e+01 0 0 0
900 1 6.8078899584602182e+00 3.6543178995052816e+00 1.5406417817328824e+01 0 0 0
907 2 2.4706560145221168e+00 6.0803657223855279e-01 1.7872923871143250e+01 0 0 0
909 1 3.2243559460997879e+00 8.8331550954313420e-01 1.7325678620310722e+01 0 0 0
1823 1 -5.1280946153122891e+00 1.1454443095559094e+01 2.6126244141974212e+01 0 0 0
1010 1 1.7541586310249571e+00 8.5100334492415790e+00 1.4660484078799893e+01 0 0 0
1012 2 -1.5340869755000419e-01 8.6458664231642235e+00 1.4699289379842895e+01 0 0 0
1014 1 -2.2547024756123246e-01 9.1003580486805955e+00 1.5562133964075892e+01 0 0 0
1030 2 -3.7678434829889738e+00 1.0452216108412188e+01 1.9330755564372623e+01 0 0 0
1031 1 -3.7806366762608006e+00 1.0033013373587506e+01 1.8449402012772961e+01 0 0 0
1032 1 -4.7063892140413781e+00 1.0678108765062767e+01 1.9460637895786519e+01 0 0 0
1042 2 -4.1606358097431455e+00 8.9975159012398720e+00 1.6941357830700934e+01 0 0 0
1043 1 -3.9950910484493281e+00 9.3757931143772684e+00 1.6058291240084007e+01 0 0 0
1044 1 -3.4909024618832794e+00 8.3019150038327378e+00 1.7059497017739133e+01 0 0 0
1048 2 -9.7613222272416422e-02 1.0219335176605227e+01 1.6985387453912033e+01 0 0 0
1049 1 -2.6535239427514679e-01 9.8448040958819547e+00 1.7873342744362315e+01 0 0 0
1050 1 8.2561657868652460e-01 1.0512176243708931e+01 1.6973874485940485e+01 0 0 0
1057 2 2.5842087420636259e+00 1.1035514909078390e+01 1.6243095239324699e+01 0 0 0
1059 1 2.7761975227316533e+00 1.0228870585914409e+01 1.5735545062513282e+01 0 0 0
1075 2 -6.7179239527556049e+00 8.3212432820118050e+00 1.7827322320366399e+01 0 0 0
1076 1 -5.9175474392489873e+00 8.5668228141676206e+00 1.7327505006292608e+01 0 0 0
1077 1 -6.3721636605442633e+00 7.6419925281751988e+00 1.8438254548291010e+01 0 0 0
1543 2 -6.4516366337736786e+00 1.3796465235674966e+00 2.1765299549462338e+01 0 0 0
1086 1 -2.8412407290075814e+00 1.0735112526223872e+01 1.4978405817601216e+01 0 0 0
1114 2 5.2100785550740083e+00 1.0384882093214484e+01 1.9226696608949506e+01 0 0 0
1115 1 5.8627984301398062e+00 1.1108009759948827e+01 1.9274836483464817e+01 0 0 0
1116 1 5.2936066798709263e+00 1.0007144057201996e+01 1.8333865718145340e+01 0 0 0
1126 2 5.1679662106440158e+00 8.9721384631396486e+00 1.6775601434423109e+01 0 0 0
1127 1 4.2760420842112126e+00 8.6194149759432275e+00 1.6935432835879059e+01 0 0 0
1128 1 5.7874013613126953e+00 8.2796559718843348e+00 1.7079221064440873e+01 0 0 0