LAMMPS data file via write_data, version 5 Jun 2019, timestep = 200000

1440 atoms
2 atom types

0.0000000000000000e+00 2.4908230008922200e+01 xlo xhi
0.0000000000000000e+00 1.9903817974164099e+01 ylo yhi
0.0000000000000000e+00 2.6548023359066800e+01 zlo zhi
8.3727204526464103e+00 9.7926460884394899e+00 -6.4766274342063799e+00 xy xz yz

Masses

1 1.008
2 15.9994

Atoms # atomic

1197 2 4.0018727835125674e+00 1.3464115870790936e+00 6.3265766427145627e+00 0 1 1
896 1 1.6316144833017386e+01 9.2409937093770633e+00 2.8483234172822538e+00 0 0 1
1117 1 2.2558198180439870e+00 2.1208204485539645e-01 1.5806485670854316e+00 0 1 1
1119 1 3.2575579895934377e+00 1.3367242027210944e+00 2.1108404492266395e+00 0 1 1
1132 1 4.3037386361937378e+00 3.0820611203592345e+00 3.0248468378412952e+00 0 1 1
1134 1 5.0922086885855418e+00 -8.1980813766892757e-01 3.6974348546526716e+00 0 1 1
308 1 8.2007387816881998e+00 6.5250387536384373e+00 1.1426118675579895e+01 1 0 0
1137 1 3.7036440066432350e+00 3.5470221981428565e+00 1.6472113653236469e+00 0 1 1
1142 1 4.3949615331874838e+00 2.0972975075272355e+00 5.8429990269310270e+00 0 1 1
1156 1 5.0017450850567009e+00 -2.7265073766138603e-01 6.4805400872843357e+00 0 1 1
1163 2 7.4248136482836848e+00 1.0556461501825856e+00 6.4135815121521320e+00 0 1 1
1170 2 2.7666299557536815e+00 5.2577000051707667e-01 2.3678334991415331e+00 0 1 1
1173 2 4.1515399856302011e+00 2.8059276864878346e+00 2.0900851019057156e+00 0 1 1
1176 2 4.6576747779918648e+00 3.5318428731354317e+00 4.7744749208792268e+00 0 1 1
1317 2 1.2066718465572087e+01 1.3674905051978097e+00 6.2023066877017019e+00 0 1 1
1272 1 1.0060572753799834e+01 3.4567297632647129e+00 3.3561504056061908e-01 0 1 1
1237 1 1.0786790293063659e+01 2.3964265910486315e-01 1.5708682586926297e+00 0 1 1
1239 1 1.1770367389782219e+01 1.3893747753714254e+00 2.0250843926526212e+00 0 1 1
1252 1 1.2800039700951398e+01 3.0868832091024854e+00 2.9645553595705367e+00 0 1 1
1254 1 1.3565038229918429e+01 -8.3132448685906590e-01 3.6864018360893591e+00 0 1 1
1256 1 1.2189637894658356e+01 -6.4661953337028810e-01 2.9581752608398135e+00 0 1 1
1257 1 1.2430278150791219e+01 3.6042198829710062e+00 1.5395493161767129e+00 0 1 1
1262 1 1.2387601004167566e+01 2.1552505178865826e+00 5.7061324985693833e+00 0 1 1
1276 1 1.3220980440341521e+01 -1.2781871594449701e-01 6.2923955294541534e+00 0 1 1
147 1 1.5113150836129119e+01 4.4851111456412980e+00 1.1921996659701080e+01 0 0 0
1290 2 1.1266467133094004e+01 6.0527391047361034e-01 2.3431356454581942e+00 0 1 1
1293 2 1.2819325693490752e+01 2.8502383488954988e+00 2.0141401715767224e+00 0 1 1
1296 2 1.2768675934631464e+01 3.5875583499694041e+00 4.6788446134269952e+00 0 1 1
367 1 5.4813941294937756e+00 1.0970131239198122e+00 9.0753309119427357e+00 0 1 0
393 1 6.2330960996424318e+00 -9.0408513233330856e-01 1.0052340779491654e+01 0 1 0
396 1 6.1977024078412750e+00 -7.5182154618411823e-01 8.4722260285746067e+00 0 1 0
415 1 7.9070091047615900e+00 7.6490373104250375e-01 9.4917717779833790e+00 0 1 0
418 1 9.2172308110644625e+00 6.6477286767029486e-01 1.0288145172357531e+01 0 1 0
420 1 7.9564283610178457e+00 1.8433166810550705e+00 6.5732085242225020e+00 0 1 0
426 1 6.0099669397329860e+00 -1.3061448380703724e+00 1.2220599227208355e+01 0 1 0
444 2 5.3842158553215604e+00 -1.0803915210252706e+00 6.8542195969069750e+00 0 1 0
452 2 6.4162475901443567e+00 -3.0415098656428996e-01 9.2943210684319215e+00 0 1 0
470 2 6.0217781338006304e+00 -1.9276733892185325e+00 1.1473239756159614e+01 0 1 0
474 2 8.6402648404483280e+00 1.3129285022800463e+00 9.8187569107914126e+00 0 1 0
487 1 1.3900708033594228e+01 1.2167657153204599e+00 8.9241726302098705e+00 0 1 0
513 1 1.4420254352219027e+01 -8.9874536513099823e-01 9.8203648042794960e+00 0 1 0
516 1 1.4498710820889082e+01 -6.4964502342351449e-01 8.2633010641284717e+00 0 1 0
535 1 1.6027316668537772e+01 7.9392249157526651e-01 9.4967992015687077e+00 0 1 0
538 1 1.7328986148204031e+01 7.0798010063023575e-01 1.0283649049350702e+01 0 1 0
449 2 1.2568453908700832e+01 2.9614540485490020e+00 1.1096524192199148e+01 0 1 0
546 1 1.4910803857301470e+01 -2.5642558749718316e+00 1.1242985761462361e+01 0 1 0
564 2 1.3660615970440723e+01 -9.2092696071534852e-01 6.6905876468433965e+00 0 1 0
572 2 1.4667080530255850e+01 -2.3875516617959081e-01 9.1316921196931329e+00 0 1 0
590 2 1.4047740976547981e+01 -2.2761321664893428e+00 1.0938743292744078e+01 0 1 0
594 2 1.6752667895853854e+01 1.3533629913325846e+00 9.8114372649837431e+00 0 1 0
723 1 4.4876966817682478e+00 9.3882569756180683e+00 2.7226438347523707e-01 0 0 1
751 1 4.5601671378787945e+00 7.1466612007389383e+00 2.9592368992099733e+00 0 0 1
765 1 6.6107308627076637e+00 7.5957132012637061e+00 5.7735649182876303e+00 0 0 1
730 1 7.2999351644882013e+00 5.3517817308379003e+00 5.5183204932737855e+00 0 0 1
731 1 5.1441949898157464e+00 8.2515687461772131e+00 1.1037883610709649e+00 0 0 1
749 1 4.2001939552316436e+00 6.2013273417769526e+00 1.7462328738552764e+00 0 0 1
755 1 7.7875733925987172e+00 7.7681302483515413e+00 4.7453557691793851e+00 0 0 1
784 1 8.8925631535054066e+00 8.2615137758873942e+00 6.5999534576772847e+00 0 0 1
801 2 4.9011242390462595e+00 6.7899652137310289e+00 2.1020749318736320e+00 0 0 1
831 2 5.3320845157220162e+00 9.0904747742318115e+00 6.5410264338958390e-01 0 0 1
833 2 8.6503413732990957e+00 8.6499809556748257e+00 3.4899686334298221e+00 0 0 1
835 2 7.4906531159411340e+00 7.2683703460552387e+00 5.5324565454446333e+00 0 0 1
1165 2 2.9323280640191203e+00 5.2579180247439252e+00 1.0204043039907957e+00 0 1 1
1103 1 5.5039268255111331e+00 3.9539685298701688e+00 4.9441147256229891e+00 0 1 1
1128 1 3.0510506809449054e+00 5.5649566405422615e+00 9.6188391519664004e-02 0 1 1
1182 2 6.9998719313040896e+00 5.1175874490504754e+00 2.0843506916205379e+00 0 1 1
1088 1 6.7997253105060125e+00 4.3933454643946712e+00 6.5937520926914157e+00 0 1 1
1102 1 6.2263716445388564e+00 5.7204850524765734e+00 2.2065164209013131e+00 0 1 1
1186 2 7.0590715753269242e+00 4.4321747596707510e+00 5.6548152634653714e+00 0 1 1
843 1 1.2827430151409580e+01 9.7590098678989765e+00 2.7920199863427642e-01 0 0 1
871 1 1.2708104743754850e+01 7.2994991908525773e+00 2.9459575242266882e+00 0 0 1
885 1 1.4765050764755031e+01 7.9621950494271037e+00 5.6856895587029284e+00 0 0 1
850 1 1.5263413283242052e+01 5.6922072776109935e+00 5.4423890448446297e+00 0 0 1
851 1 1.3320235720747011e+01 8.4509390548320766e+00 1.0116945396166905e+00 0 0 1
869 1 1.2393489530230591e+01 6.3729870691170500e+00 1.7285618224935806e+00 0 0 1
875 1 1.5872757425916530e+01 7.9585967413809300e+00 4.5955992066811699e+00 0 0 1
402 1 3.8400193604648836e+00 -1.1729812400411834e+00 8.2159839473470502e+00 0 1 0
921 2 1.3009277698020380e+01 7.0418232248331645e+00 2.0608710737014055e+00 0 0 1
951 2 1.3618192458193850e+01 9.1966049841584621e+00 4.3895142941937715e-01 0 0 1
953 2 1.6896141172106255e+01 8.5992998593618442e+00 3.3194538892590542e+00 0 0 1
955 2 1.5614061608350610e+01 7.5648270398669695e+00 5.4614174754955762e+00 0 0 1
1285 2 1.1229812841867998e+01 5.1069692969912097e+00 8.7182273540336597e-01 0 1 1
1223 1 1.3609279778995152e+01 4.0033041789971566e+00 4.9463953413219848e+00 0 1 1
904 1 1.7185374176569013e+01 8.4091620004197374e+00 6.3148782061726054e+00 0 0 1
1302 2 1.5186842414432197e+01 5.2121739326542773e+00 2.0840915115989960e+00 0 1 1
1208 1 1.4984786078226362e+01 4.6529817029807914e+00 6.5367216182224492e+00 0 1 1
1222 1 1.4461969648198711e+01 5.8480923156970714e+00 2.1790480348882846e+00 0 1 1
1306 2 1.5161575783159858e+01 4.7321251780169522e+00 5.5767768654355621e+00 0 1 1
98 2 6.1617534000261198e+00 4.3717138834759854e+00 8.3101039358888187e+00 0 0 0
13 1 1.1021136166113388e+01 4.0406409708024444e+00 1.1041986399883646e+01 0 0 0
15 1 1.0452515659093821e+01 5.1409416746052425e+00 1.1948726787166100e+01 0 0 0
17 1 6.7822794084029061e+00 4.7748752025836447e+00 8.9401724889854286e+00 0 0 0
59 1 8.8498040873538244e+00 3.7952941153741135e+00 1.1441593018145644e+01 0 0 0
1214 1 1.5002600200507096e+01 4.7918632429942267e+00 1.2249841094402945e+00 0 1 1
74 1 8.7325893313026430e+00 5.8911194829539326e+00 9.1462084834884969e+00 0 0 0
79 1 7.5490398048919882e+00 6.8507499290890372e+00 9.2178124109904331e+00 0 0 0
101 2 1.0268583280330807e+01 4.6617887739917734e+00 1.1122831862647267e+01 0 0 0
104 2 7.9217034435700482e+00 6.0547375573845557e+00 9.6451202281573956e+00 0 0 0
430 1 8.1293813321142565e+00 2.5478941261491741e+00 1.0921727716977628e+01 0 1 0
379 1 5.9326255505133947e+00 3.4791904273582501e+00 8.6504152520352751e+00 0 1 0
457 2 8.0543610337887444e+00 3.2315465639947272e+00 1.1627498165825292e+01 0 1 0
218 2 1.4489980127499257e+01 4.5848615055684423e+00 8.1884965632277353e+00 0 0 0
133 1 1.9191958329608482e+01 4.0670944951528760e+00 1.1241418940050311e+01 0 0 0
135 1 1.8621918566253946e+01 5.0784579959920038e+00 1.2287577490445479e+01 0 0 0
137 1 1.5201906837020058e+01 4.8994730860793094e+00 8.7851799406654152e+00 0 0 0
179 1 1.7088520237438196e+01 3.7398240803784732e+00 1.1664482150211681e+01 0 0 0
187 1 1.7820234948912287e+01 7.0034260064124423e+00 1.0542667542508012e+01 0 0 0
194 1 1.7151761375234550e+01 5.8136479586227825e+00 8.7771629527701442e+00 0 0 0
199 1 1.6080731839296739e+01 6.9194229043303128e+00 8.9486660951059758e+00 0 0 0
221 2 1.8463225349023531e+01 4.6839829565996194e+00 1.1415958629203571e+01 0 0 0
224 2 1.6459878445768222e+01 6.1245513248875234e+00 9.3841350029422248e+00 0 0 0
550 1 1.6317081770731356e+01 2.5641239142222045e+00 1.1048895646420078e+01 0 1 0
499 1 1.4242399175416420e+01 3.6710088238573455e+00 8.4251931513618459e+00 0 1 0
577 2 1.6287460179397556e+01 3.2035475030895846e+00 1.1787275488452176e+01 0 1 0
1112 1 6.6460082625043650e+00 8.0922310350813620e-01 3.2892039200176142e+00 0 1 1
1114 1 6.6155244107607780e+00 6.0167434009369303e-01 4.8668551083347200e+00 0 1 1
1123 1 9.0833995521090127e+00 6.4282326271904355e-01 4.6452658714096602e+00 0 1 1
1145 1 5.9243193436629067e+00 2.2709358115002081e+00 1.8621286939844155e+00 0 1 1
1155 1 9.1866354197312496e+00 2.9196053389330037e+00 3.8751060523316028e+00 0 1 1
1157 1 9.2177624279588919e+00 2.6280683028978937e+00 1.3112166357332131e+00 0 1 1
1158 1 6.9913325576013889e+00 1.3696890424046091e+00 1.1418210621462845e+00 0 1 1
1166 2 6.4246358525548741e+00 1.6072333200178635e-01 4.0162579353130994e+00 0 1 1
1183 2 9.1970402539845342e+00 3.7081148744397057e+00 3.3061524545683705e+00 0 1 1
1187 2 6.7960950071080628e+00 1.8230225529977448e+00 1.9670212036413846e+00 0 1 1
1198 2 9.8724168358961624e+00 1.1557381142606875e+00 4.5652155938022227e+00 0 1 1
1241 1 1.0288562590446087e+01 9.8381259442928626e-01 3.7054814345066047e+00 0 1 1
1249 1 1.1307111151226348e+01 1.1139811528596004e+00 5.6469334207729558e+00 0 1 1
1320 2 9.4208716012853770e+00 2.7167602163906954e+00 3.6602105051104689e-01 0 1 1
362 1 1.2771305736456672e+01 1.9112810586202400e-01 1.2872725776709938e+01 0 1 0
384 1 1.2199227030931642e+01 1.4719300299692257e+00 1.2127910530444623e+01 0 1 0
385 1 9.4442658702573752e+00 2.0888767073247880e+00 8.4656990964128678e+00 0 1 0
398 1 9.7892458846671850e+00 -1.3413324888306815e+00 1.1086997060187430e+01 0 1 0
400 1 1.1098731347564479e+01 -1.0054057722416680e+00 9.3125219493534228e+00 0 1 0
404 1 1.0455159131617496e+01 2.2289785304471454e+00 7.2410129326927803e+00 0 1 0
406 1 1.0894576948901150e+01 -2.7346467200082980e-01 1.1559814508310843e+01 0 1 0
410 1 7.9522791953549463e+00 3.0331624384158262e-01 6.7545079525672369e+00 0 1 0
421 1 9.9546816708708956e+00 -1.1736535116591842e+00 7.3413074646967109e+00 0 1 0
447 2 1.0302653077875991e+01 -5.4830659943301141e-01 1.0829115663661272e+01 0 1 0
451 2 1.2052172537978990e+01 -2.7602875089706713e+00 1.2897313394880012e+01 0 1 0
472 2 1.1947188664920347e+01 6.7309301701548785e-01 1.2652970200830348e+01 0 1 0
476 2 9.6658886630117582e+00 2.6031629371816187e+00 7.6553909574168166e+00 0 1 0
479 2 9.0794001218070388e+00 -1.2317441015037225e+00 6.9323369092720233e+00 0 1 0
485 1 1.2846548579245409e+01 1.8644403459545102e+00 7.9587486919167389e+00 0 1 0
522 1 1.2159990776812803e+01 -8.7517540524834514e-01 8.1416875217958449e+00 0 1 0
560 1 1.2666571650702201e+01 -2.5384168702522514e+00 1.2168690235673823e+01 0 1 0
575 2 1.1351965614646623e+01 -1.3143804503995113e+00 8.4250370592357307e+00 0 1 0
588 2 1.3437794937985482e+01 2.0731298665232729e+00 8.7019112675656629e+00 0 1 0
724 1 1.2510775591588210e+01 7.9868048613896052e+00 5.3255987375489946e+00 0 0 1
726 1 1.1607782790759661e+01 8.6833544008483070e+00 4.3289753524110237e+00 0 0 1
738 1 1.1005146859649807e+01 6.2822807242907164e+00 4.7394156941307211e+00 0 0 1
791 1 9.0553036735690640e+00 7.3824806958822107e+00 2.2838437595472874e+00 0 0 1
820 2 9.1343520398354254e+00 6.7139363715233875e+00 1.5788260686579485e+00 0 0 1
829 2 1.2032869600479270e+01 7.8240891536909132e+00 4.5035050480505223e+00 0 0 1
1094 1 6.8489705411713375e+00 4.6630619605129384e+00 1.2350638368811664e+00 0 1 1
1153 1 8.2813871085394730e+00 4.0010724124427277e+00 3.1996436880681776e+00 0 1 1
1081 1 1.0097120224665057e+01 5.0191161166949882e+00 4.4090716185490555e+00 0 1 1
1106 1 1.0447193159278724e+01 5.5921600053476750e+00 1.2189255335049147e+00 0 1 1
1149 1 8.3655916164587651e+00 6.1172208592476833e+00 1.7293375538469233e+00 0 1 1
1179 2 1.0706552908971684e+01 5.4082842457673248e+00 5.0495968746257232e+00 0 1 1
1220 1 1.2072042374195640e+01 4.2664583746481721e+00 4.8036172299247086e+00 0 1 1
9 1 1.0054402745082106e+01 5.5326466562341423e+00 6.9371895803070398e+00 0 0 0
408 1 8.0424874541216447e+00 2.3562770785814342e+00 1.3171511285807657e+01 0 1 0
21 1 1.3095103401482179e+01 5.7970053457231101e+00 8.4361777948831556e+00 0 0 0
47 1 1.1570263017981400e+01 6.0370266532302379e+00 8.3958384766012735e+00 0 0 0
51 1 1.2796838972083208e+01 6.9781048481262218e+00 1.0239263000703135e+01 0 0 0
53 1 1.3485947691860432e+01 6.5015769854210941e+00 1.1528208503738732e+01 0 0 0
63 1 1.2758712799926412e+01 7.8620841958198380e+00 7.4968779935931416e+00 0 0 0
68 1 1.5754959867540975e+01 6.6341955806393598e+00 1.2755713896153084e+01 0 0 0
82 2 1.4435294017476304e+01 5.0981443963453428e+00 1.2272859055085695e+01 0 0 0
427 1 6.9093002609857823e+00 -2.3373347314927782e+00 1.1467068403298592e+01 0 1 0
94 2 1.2424607749877641e+01 6.5058539745746398e+00 8.5700785292902850e+00 0 0 0
105 2 1.0036758543248277e+01 5.3574613916970861e+00 7.8807717534499107e+00 0 0 0
390 1 1.2854052044352384e+01 2.6635626390481013e+00 1.0203705988893578e+01 0 1 0
372 1 9.9227716668263426e+00 4.3821000013735008e+00 7.9495971256384825e+00 0 1 0
388 1 1.3250129983943406e+01 3.5538518882730670e+00 1.1446070687972890e+01 0 1 0
365 1 4.5865080564988530e+00 1.6655990611381850e+00 7.9993785109536706e+00 0 1 0
16 1 1.4214842283044408e+01 4.6953438152781448e+00 1.3143769998411933e+01 0 0 0
1248 1 1.1339571701752018e+01 5.5648628409114025e+00 3.0674691785032371e-03 0 1 1
736 1 9.0608357172376159e+00 7.6391257087951958e+00 4.8603916610566816e-02 0 0 1
477 2 8.7159721805128409e+00 -1.7181237599870980e+00 1.9669955467228000e+01 0 1 0
184 1 2.2312810697219454e+01 4.9933886891414039e+00 1.9863784223665277e+01 0 0 0
397 1 7.0536493423592006e+00 -3.0222018695335859e+00 1.4846138019756896e+01 0 1 0
399 1 8.0325152485943629e+00 -1.8490524932406356e+00 1.5314319223063228e+01 0 1 0
412 1 9.1523591153722492e+00 -7.2614877016529800e-02 1.6228225767112814e+01 0 1 0
414 1 9.9643299652128920e+00 -4.0477679162694900e+00 1.7031292237405587e+01 0 1 0
1160 1 9.7645074501465121e+00 -5.5696030944137052e+00 2.5314841114053095e+01 0 1 0
417 1 8.6896858237565233e+00 4.3121789006768996e-01 1.4854059948510134e+01 0 1 0
422 1 9.1621607923260306e+00 -9.9991996109272030e-01 1.9147074749451424e+01 0 1 0
436 1 9.7376115637464444e+00 -3.3589767150650531e+00 1.9878226521037639e+01 0 1 0
443 2 1.2280406233180694e+01 -2.1333615492518616e+00 1.9782925165026441e+01 0 1 0
450 2 7.6145445650968888e+00 -2.6936996278062448e+00 1.5585340980414497e+01 0 1 0
453 2 9.1030725061109088e+00 -3.2382704239222848e-01 1.5285775822324860e+01 0 1 0
456 2 9.4377257040985398e+00 3.3955901441407921e-01 1.7971995305990966e+01 0 1 0
597 2 1.6840159407227262e+01 -1.5268283341933855e+00 1.9502138414538919e+01 0 1 0
552 1 1.4901994921055937e+01 2.3671458784309785e-01 1.3782103619406076e+01 0 1 0
517 1 1.5363219023498353e+01 -2.8871575776984915e+00 1.4846662550066428e+01 0 1 0
519 1 1.6404261560200215e+01 -1.7988767907517333e+00 1.5320186519895444e+01 0 1 0
532 1 1.7605598533134039e+01 -6.8074495508927857e-02 1.6298129760830872e+01 0 1 0
1122 1 8.5521016842543833e+00 -4.3835177149423750e+00 2.1492847842344901e+01 0 1 0
1108 1 1.7893522799010270e+01 3.2680926182153680e-01 2.4830961979300120e+01 0 1 0
537 1 1.7195024608319912e+01 4.2885143400622550e-01 1.4937129369489741e+01 0 1 0
542 1 1.7278594598786164e+01 -8.2687984686452243e-01 1.8983128214288243e+01 0 1 0
556 1 1.7829308443835529e+01 -3.1159354998107052e+00 1.9744254895101399e+01 0 1 0
867 1 1.9739472399325926e+01 1.0823965643136626e+00 2.5341545314077969e+01 0 0 0
570 2 1.5879068850351359e+01 -2.5658043654826832e+00 1.5602044052344034e+01 0 1 0
573 2 1.7567517335341378e+01 -3.5718250236129556e-01 1.5364985406639056e+01 0 1 0
576 2 1.7691719991844607e+01 5.6694804508467644e-01 1.7989219808617381e+01 0 1 0
1087 1 1.0368861509159697e+01 -1.9608070725884259e+00 2.2397304605734881e+01 0 1 0
1113 1 1.1260283820954490e+01 -3.8992679784269857e+00 2.3631578832346527e+01 0 1 0
1116 1 1.1077302088502366e+01 -3.9737696070533355e+00 2.2045862700571952e+01 0 1 0
1135 1 1.2792251011449936e+01 -2.4101864876798555e+00 2.2905331334686615e+01 0 1 0
1138 1 1.4185761491741959e+01 -2.4881649128096299e+00 2.3587889507432600e+01 0 1 0
1140 1 1.2823979185200205e+01 -1.3909373768335738e+00 2.0068820413331494e+01 0 1 0
1146 1 1.1276860529847060e+01 -4.3278232549149269e+00 2.6020578532894088e+01 0 1 0
1164 2 1.0008612816102669e+01 -4.1685616163160999e+00 2.0355442509679332e+01 0 1 0
1172 2 1.1324341891781875e+01 -3.3923442423379191e+00 2.2783582678950008e+01 0 1 0
1190 2 1.1336295060223847e+01 -4.7529365567875885e+00 2.5152564720243639e+01 0 1 0
1194 2 1.3548585650705437e+01 -1.8655908823524068e+00 2.3174212142529694e+01 0 1 0
1207 1 1.8561107530263367e+01 -1.8905093997781837e+00 2.2240176262575602e+01 0 1 0
1233 1 1.9115094611614666e+01 -4.0547630749065426e+00 2.3156128707940972e+01 0 1 0
1236 1 1.9184593677998212e+01 -3.7612043701473583e+00 2.1622640660843576e+01 0 1 0
1255 1 2.0854271375394809e+01 -2.4580083266579922e+00 2.2970342923231865e+01 0 1 0
1258 1 2.2168252752888698e+01 -2.5898582148622733e+00 2.3707560646282296e+01 0 1 0
1169 2 1.7258398614360068e+01 -3.2816910749493111e-01 2.4504043256684135e+01 0 1 0
1266 1 1.9634574003736098e+01 -5.7618601013774589e+00 2.4579482010542513e+01 0 1 0
1284 2 1.8206077722399623e+01 -3.9452140359369423e+00 2.0083471424660825e+01 0 1 0
1292 2 1.9401591592334249e+01 -3.3788716304569673e+00 2.2492924043717640e+01 0 1 0
1310 2 1.8789046752005849e+01 -5.4175034013921870e+00 2.4268192970750540e+01 0 1 0
1314 2 2.1624724056669322e+01 -1.9259352838586561e+00 2.3248578485383856e+01 0 1 0
3 1 9.4981209757101013e+00 6.2072927930705877e+00 1.3413071970194929e+01 0 0 0
31 1 9.5588165877293356e+00 3.8824472538087864e+00 1.6203957828709335e+01 0 0 0
45 1 1.1554247347706877e+01 4.4220673673342956e+00 1.9000024862910724e+01 0 0 0
10 1 1.2085858877422861e+01 2.1310601647572511e+00 1.8784945703702324e+01 0 0 0
11 1 1.0086235318184141e+01 5.0324088163313112e+00 1.4261085924812500e+01 0 0 0
29 1 9.0869719333612320e+00 3.0382449112030532e+00 1.4986065106546931e+01 0 0 0
35 1 1.2738663861788137e+01 4.4353056059337232e+00 1.8000081687933111e+01 0 0 0
64 1 1.3933408160674524e+01 4.9840273662862842e+00 1.9896431030196094e+01 0 0 0
81 2 9.8473795584880861e+00 3.5450351308125092e+00 1.5326980736726618e+01 0 0 0
111 2 1.0319482480832869e+01 5.8375091495944051e+00 1.3769564728131270e+01 0 0 0
113 2 1.3691946033611817e+01 5.3298723622155064e+00 1.6712685070911537e+01 0 0 0
115 2 1.2418641891109665e+01 4.0414358865159610e+00 1.8835819774611753e+01 0 0 0
445 2 7.8471013067338449e+00 1.9711779175123247e+00 1.4052761888693498e+01 0 1 0
383 1 1.0312364713235219e+01 7.6471365416105463e-01 1.8158558089223995e+01 0 1 0
534 1 1.8275218580727412e+01 -3.9748022017174707e+00 1.6915142375394293e+01 0 1 0
462 2 1.2103660418443880e+01 1.8978124870675224e+00 1.5120294260332310e+01 0 1 0
368 1 1.1510892533620485e+01 1.1905271126761052e+00 1.9824693161921498e+01 0 1 0
382 1 1.1300231671824134e+01 2.4218637442954534e+00 1.5287615483030702e+01 0 1 0
466 2 1.1820306665386322e+01 1.2009647755747697e+00 1.8896335016088429e+01 0 1 0
123 1 1.7776726993966541e+01 6.3806003166865448e+00 1.3754138270697116e+01 0 0 0
151 1 1.7720579771823299e+01 3.9249433013011137e+00 1.6517840603891184e+01 0 0 0
165 1 1.9809678964932669e+01 4.5993665009012323e+00 1.9158608756354003e+01 0 0 0
130 1 2.0234973590933247e+01 2.4962898533896363e+00 1.8816119889416086e+01 0 0 0
131 1 1.8360212898166751e+01 5.1301345101699791e+00 1.4547887721730705e+01 0 0 0
149 1 1.7328988813885893e+01 3.0244626429827339e+00 1.5303609301445245e+01 0 0 0
155 1 2.0877161213985353e+01 4.6399052491577786e+00 1.8026922019617356e+01 0 0 0
1147 1 1.2161776228108765e+01 -5.2815032518311540e+00 2.5163651770032899e+01 0 1 0
201 2 1.7997715764553927e+01 3.6519535943133148e+00 1.5602616845787040e+01 0 0 0
231 2 1.8595315485628372e+01 5.8708532657757502e+00 1.3923292776637094e+01 0 0 0
233 2 2.1862581323678064e+01 5.3834027611410216e+00 1.6764056963380956e+01 0 0 0
235 2 2.0635984830399181e+01 4.1933606044625433e+00 1.8859841999274597e+01 0 0 0
565 2 1.6226240147818164e+01 1.8180089344312780e+00 1.4163021184841213e+01 0 1 0
503 1 1.8507632110095511e+01 1.0069690861420515e+00 1.8304034595471006e+01 0 1 0
544 1 1.7719806857267063e+01 -4.6339063184290081e+00 1.9621208464815272e+01 0 1 0
582 2 2.0143324672494497e+01 2.0242163600676877e+00 1.5153357599321128e+01 0 1 0
488 1 2.0011619894711433e+01 1.4300624296606745e+00 1.9900733506361835e+01 0 1 0
502 1 1.9385162103143326e+01 2.6342397853566815e+00 1.5339885814291698e+01 0 1 0
586 2 2.0096394630242820e+01 1.5369997935333100e+00 1.8936986655507820e+01 0 1 0
818 2 1.0880600187698811e+01 1.2478500402262069e+00 2.1494051331978799e+01 0 0 0
733 1 1.5804051673960252e+01 7.9476779991584401e-01 2.4361104928164835e+01 0 0 0
735 1 1.5364173446043868e+01 1.9791445063912105e+00 2.5213716719108529e+01 0 0 0
737 1 1.1505313191800290e+01 1.6410321595409050e+00 2.2132408175726550e+01 0 0 0
779 1 1.3641756949744355e+01 6.1291965313757224e-01 2.4877675310038917e+01 0 0 0
514 1 1.9851008228646464e+01 -2.7514603371896627e+00 1.8161554738484508e+01 0 1 0
794 1 1.3498698456744647e+01 2.5227075601873130e+00 2.2577764364409617e+01 0 0 0
799 1 1.2393017322058757e+01 3.6100911443403394e+00 2.2570075500753891e+01 0 0 0
821 2 1.5111508611825133e+01 1.4727530310059453e+00 2.4445066659830854e+01 0 0 0
824 2 1.2658090907198510e+01 2.7723194625358847e+00 2.3007671731609818e+01 0 0 0
1150 1 1.2929765384943556e+01 -6.3220002633506844e-01 2.4408865529780744e+01 0 1 0
1099 1 1.0609418708542719e+01 3.5882886743636444e-01 2.1783738914597102e+01 0 1 0
1177 2 1.2881360176870871e+01 6.0764934635836987e-02 2.5092126028476471e+01 0 1 0
938 2 1.9390742621981929e+01 1.4889289997405184e+00 2.1645581027111415e+01 0 0 0
853 1 2.3927965084354156e+01 9.4571959793817140e-01 2.4369206020164011e+01 0 0 0
855 1 2.3429835032335014e+01 2.0285810307800229e+00 2.5399678892903037e+01 0 0 0
857 1 2.0036361854933048e+01 1.8457515285131949e+00 2.2287731770659025e+01 0 0 0
899 1 2.1875779030329767e+01 6.1722916757799151e-01 2.4973376296819389e+01 0 0 0
1092 1 1.4824988863313532e+01 1.2305868015776218e+00 2.1305008364286820e+01 0 1 0
914 1 2.1909677035455648e+01 2.5660602466142537e+00 2.3391229575500805e+01 0 0 0
919 1 2.0983733786411399e+01 3.7081953588516896e+00 2.2767193044283452e+01 0 0 0
941 2 2.3206886354110789e+01 1.5704275893079904e+00 2.4558577653844157e+01 0 0 0
944 2 2.1008161703423028e+01 2.9436277970130833e+00 2.3369982894579856e+01 0 0 0
1270 1 2.1144894038606267e+01 -6.3867445102590548e-01 2.4439601211957822e+01 0 1 0
1219 1 1.9130039463450863e+01 5.8856492095101132e-01 2.1878369003461334e+01 0 1 0
1297 2 2.1064179438295199e+01 4.3694192087337491e-02 2.5107869636423654e+01 0 1 0
392 1 1.1466423444549626e+01 -2.3024039713980486e+00 1.6595360595599143e+01 0 1 0
394 1 1.1442637717081215e+01 -2.4162732918956400e+00 1.8166639678931176e+01 0 1 0
403 1 1.3884852677531811e+01 -2.2844076308507266e+00 1.8205510073348812e+01 0 1 0
425 1 1.0981808493259571e+01 -8.0623648595594499e-01 1.5129201581623679e+01 0 1 0
435 1 1.4152392250411438e+01 6.7071254373116673e-03 1.7106745602637396e+01 0 1 0
437 1 1.3932075450231713e+01 -6.2877094399924616e-01 1.4503854902861567e+01 0 1 0
438 1 1.1878246136922341e+01 -1.7747926153910389e+00 1.4387619248513980e+01 0 1 0
446 2 1.1270945385052025e+01 -2.9050490150251598e+00 1.7341409852185322e+01 0 1 0
463 2 1.4198718345585705e+01 8.2478554402197890e-01 1.6593619938955971e+01 0 1 0
467 2 1.1795321086692471e+01 -1.3143474896221270e+00 1.5221876895060271e+01 0 1 0
478 2 1.4655044964974444e+01 -1.8255238626018619e+00 1.7888549695246002e+01 0 1 0
521 1 1.4953917511254094e+01 -2.1567816734377026e+00 1.7007025737297880e+01 0 1 0
529 1 1.6086559015249023e+01 -1.7311988175650526e+00 1.8913875373724629e+01 0 1 0
600 2 1.4297510118391017e+01 -5.1153886312378027e-01 1.3611444963688898e+01 0 1 0
1082 1 1.7641730530239961e+01 -3.1289971098324241e+00 2.6280405142040838e+01 0 1 0
1104 1 1.6984403727812754e+01 -1.9006411513091575e+00 2.5512118033373525e+01 0 1 0
1105 1 1.4277625586593336e+01 -9.9829286208540680e-01 2.1827109670744701e+01 0 1 0
1118 1 1.4683490800165568e+01 -4.6553861277537028e+00 2.4433569316197811e+01 0 1 0
1120 1 1.5755823023358925e+01 -4.3147219513338815e+00 2.2563435660187107e+01 0 1 0
1124 1 1.5346540137254184e+01 -8.5283355515703985e-01 2.0675845540200108e+01 0 1 0
1126 1 1.5822469973272000e+01 -3.5960113841540520e+00 2.4859071110904374e+01 0 1 0
1130 1 1.2739318143085601e+01 -2.9432309200241371e+00 2.0108641565155519e+01 0 1 0
1141 1 1.4564551857019477e+01 -4.4947468836904507e+00 2.0634048468327713e+01 0 1 0
1167 2 1.5200019863372608e+01 -3.8803737826028124e+00 2.4138446679880307e+01 0 1 0
1171 2 1.7186083777038071e+01 -6.1484998350972662e+00 2.6352988697123582e+01 0 1 0
1192 2 1.6799023830340182e+01 -2.7027504998990817e+00 2.6021314332815564e+01 0 1 0
1196 2 1.4517297418539240e+01 -5.1831754068858427e-01 2.1010328741153710e+01 0 1 0
1199 2 1.3703044796716910e+01 -4.5788550283671920e+00 2.0197782166484341e+01 0 1 0
1205 1 1.7582335479091370e+01 -1.2048785980034267e+00 2.1264127015532168e+01 0 1 0
1242 1 1.6722575901174842e+01 -4.1599600920804347e+00 2.1353087748297067e+01 0 1 0
1280 1 1.7627956628808604e+01 -5.7337989269457399e+00 2.5574306559207706e+01 0 1 0
1295 2 1.5959826115664447e+01 -4.6431383434679088e+00 2.1671114056169042e+01 0 1 0
1308 2 1.8077062326648715e+01 -1.0541334909850812e+00 2.2073047406470170e+01 0 1 0
4 1 1.7546196948698711e+01 4.8570849896987323e+00 1.8751032272070109e+01 0 0 0
6 1 1.6692947994205952e+01 5.5286482473833836e+00 1.7646480750436130e+01 0 0 0
18 1 1.5839954365384807e+01 3.1572377485542544e+00 1.8187859164325658e+01 0 0 0
71 1 1.4210260437093007e+01 4.2074648895988602e+00 1.5412048677784195e+01 0 0 0
100 2 1.4230452146294216e+01 3.6090832688954317e+00 1.4639037944710994e+01 0 0 0
109 2 1.7063004799807175e+01 4.6658658384881431e+00 1.7932087798437792e+01 0 0 0
374 1 1.1929930049590435e+01 1.4048312673677827e+00 1.4308989277757098e+01 0 1 0
433 1 1.3304811807118849e+01 1.1256595834258865e+00 1.6349348785912891e+01 0 1 0
361 1 1.4986092339615912e+01 1.9318640915085608e+00 1.7718668048815694e+01 0 1 0
386 1 1.5464275899907342e+01 2.3407734004946361e+00 1.4486481381855661e+01 0 1 0
429 1 1.3422111829779865e+01 3.0649825150703167e+00 1.4756008537122510e+01 0 1 0
459 2 1.5577019018437657e+01 2.2591212075623517e+00 1.8425057567122813e+01 0 1 0
500 1 1.6968098576782559e+01 1.2111579795205714e+00 1.8165644173107186e+01 0 1 0
729 1 1.4985581213097005e+01 2.2645392591086528e+00 2.0218247214593191e+01 0 0 0
808 2 1.7745985097029838e+01 3.9102671140069596e+00 2.4705841244438425e+01 0 0 0
741 1 1.7988475254237848e+01 2.6273510012384778e+00 2.1833018238311634e+01 0 0 0
767 1 1.6459006916634138e+01 2.9262383737675837e+00 2.1833908977678846e+01 0 0 0
771 1 1.7622525058880804e+01 3.6514928061890224e+00 2.3761748858102056e+01 0 0 0
773 1 1.8121019391493260e+01 3.1090521515819827e+00 2.5121427258360992e+01 0 0 0
783 1 1.7695791183274352e+01 4.7328843639114258e+00 2.0927525009995286e+01 0 0 0
788 1 2.0242938760094393e+01 3.2736529377010060e+00 2.6393254550175687e+01 0 0 0
802 2 1.8982662308695915e+01 1.5808616800951603e+00 2.5727867325878105e+01 0 0 0
1110 1 1.7534364087199052e+01 -5.8854456339117700e-01 2.3591277551948046e+01 0 1 0
814 2 1.7322375343497590e+01 3.3284337760473655e+00 2.2033848192528517e+01 0 0 0
825 2 1.4941367221458552e+01 2.2026413834195626e+00 2.1185927500539155e+01 0 0 0
536 1 1.6897184946587331e+01 -3.7990782078967853e+00 1.6207795703805843e+01 0 1 0
528 1 1.6385621504636688e+01 2.2360392856660867e+00 1.3290081687615817e+01 0 1 0
837 2 8.1020622759226253e+00 1.1412751057639097e+01 6.3534735127573496e+00 0 0 1
168 1 2.0572418665981647e+01 1.2247818850740515e+01 1.3206645545753052e+01 0 0 0
757 1 6.2470030405232224e+00 1.0002870715897224e+01 1.7593170341495759e+00 0 0 1
759 1 7.1940370525285875e+00 1.1215258396477980e+01 2.1204957179561319e+00 0 0 1
772 1 8.2740417564458539e+00 1.3074899359140950e+01 2.8389380869314791e+00 0 0 1
774 1 9.3957703695999921e+00 9.2009832861276788e+00 3.7821804587588352e+00 0 0 1
42 1 7.8885253461378220e+00 8.8440557381896365e+00 8.2329467848413032e+00 0 0 0
777 1 7.7972170293365837e+00 1.3588772989807365e+01 1.4711249762239516e+00 0 0 1
782 1 8.4658024577711011e+00 1.2143766592006131e+01 5.8253373730732321e+00 0 0 1
796 1 9.0438141911791003e+00 9.8090414781111637e+00 6.6454920134606574e+00 0 0 1