LAMMPS data file via write_data, version 5 Jun 2019, timestep = 0

972 atoms
2 atom types

0.0000000000000000e+00 2.0733059942946799e+01 xlo xhi
0.0000000000000000e+00 1.8919046964247300e+01 ylo yhi
0.0000000000000000e+00 2.2232747519711399e+01 zlo zhi
-3.2457263593758801e-01 -8.9679150722341099e+00 -2.4571642342730500e+00 xy xz yz

Masses

1 1.008
2 15.9994

Atoms # atomic

6 1 4.9883064937413781e+00 8.3547244918715879e+00 8.1420321842989445e+00 0 0 0
7 1 5.2133644663641299e+00 6.8803998773374966e+00 7.6425921183119865e+00 0 0 0
8 1 6.4224346680902133e+00 7.2645512585284102e+00 9.1736015642475994e+00 0 0 0
21 1 4.8291226480445646e+00 6.4893565576956069e+00 1.0514918151112600e+01 0 0 0
29 2 4.0254234480506756e+00 6.0243553447578577e+00 1.0803550263398281e+01 0 0 0
30 2 5.5930215137319799e+00 7.7785206494183337e+00 7.6341788828751955e+00 0 0 0
654 1 7.9776157429087995e+00 9.1737616857263689e+00 7.3110829657667453e-01 0 0 1
655 1 8.2026701321913453e+00 7.6994369279526955e+00 2.3166589821679878e-01 0 0 1
656 1 9.4117394489621962e+00 8.0835872389481196e+00 1.7626779128480283e+00 0 0 1
669 1 7.8184324000976586e+00 7.3083913110713397e+00 3.1039968554335364e+00 0 0 1
677 2 7.0147328142287222e+00 6.8433907039025073e+00 3.3926290696583359e+00 0 0 1
678 2 8.5823302251453324e+00 8.5975564587216198e+00 2.2325580793921193e-01 0 0 1
222 1 5.0965032573574973e+00 2.0483732574092204e+00 8.1420309961048485e+00 0 1 0
223 1 5.3215591922317271e+00 5.7404928833991598e-01 7.6425888194688785e+00 0 1 0
224 1 6.5306360488244968e+00 9.5820220003906154e-01 9.1735974310180168e+00 0 1 0
237 1 4.9373240231337867e+00 1.8300218456901018e-01 1.0514911391021389e+01 0 1 0
245 2 4.1336235649416038e+00 -2.8199807306776592e-01 1.0803541615970701e+01 0 1 0
246 2 5.7012165530652528e+00 1.4721698412471662e+00 7.6341752656442168e+00 0 1 0
870 1 8.0858107080000323e+00 2.8674123063373940e+00 7.3110720626568393e-01 0 1 1
871 1 8.3108685904799220e+00 1.3930891850332887e+00 2.3166352908774918e-01 0 1 1
872 1 9.5199385541717572e+00 1.7772429808350154e+00 1.7626775367537391e+00 0 1 1
885 1 7.9266260465887619e+00 1.0020493291663390e+00 3.1039949064433974e+00 0 1 1
893 2 7.1229263317199161e+00 5.3704908578288624e-01 3.3926270844325912e+00 0 1 1
894 2 8.6905258448474481e+00 2.2912099031485562e+00 2.2325242642137436e-01 0 1 1
78 1 -1.9227165648432634e+00 8.3547084869555199e+00 8.1420232397090473e+00 1 0 0
79 1 -1.6976545662209890e+00 6.8803850512369884e+00 7.6425821049934077e+00 1 0 0
80 1 -4.8858823745307411e-01 7.2645447193272084e+00 9.1735974366510291e+00 1 0 0
93 1 -2.0818992479209419e+00 6.4893490997781722e+00 1.0514915185467379e+01 1 0 0
101 2 -2.8855982982476727e+00 6.0243471324635580e+00 1.0803546408341793e+01 1 0 0
102 2 -1.3179982814037006e+00 7.7785061620494726e+00 7.6341720437017289e+00 1 0 0
726 1 1.0665991957591459e+00 9.1737619994894981e+00 7.3110440539438937e-01 1 0 1
727 1 1.2916583283037453e+00 7.6994391187395532e+00 2.3166048373535783e-01 1 0 1
728 1 2.5007299053194618e+00 8.0835918753490450e+00 1.7626719678886864e+00 1 0 1
741 1 9.0741581614220279e-01 7.3083974305370454e+00 3.1039896686675812e+00 1 0 1
749 2 1.0371704989229547e-01 6.8433964792973532e+00 3.3926231798282833e+00 1 0 1
750 2 1.6713141886790628e+00 8.5975604118510720e+00 2.2324848472868367e-01 1 0 1
294 1 -1.8145196964364927e+00 2.0483603093219651e+00 8.1420279923013492e+00 1 1 0
295 1 -1.5894594734321636e+00 5.7403657488125359e-01 7.6425873722795794e+00 1 1 0
296 1 -3.8038753571210382e-01 9.5820097437441043e-01 9.1736006553305511e+00 1 1 0
309 1 -1.9737009920166324e+00 1.8300405804734443e-01 1.0514912577292357e+01 1 1 0
317 2 -2.7774011470200923e+00 -2.8199822868511892e-01 1.0803539920457670e+01 1 1 0
318 2 -1.2098024818842272e+00 1.4721574166423976e+00 7.6341761903145535e+00 1 1 0
942 1 1.1747918103272801e+00 2.8674171946139082e+00 7.3111294849090991e-01 1 1 1
943 1 1.3998487210663706e+00 1.3930924972735268e+00 2.3167285799162168e-01 1 1 1
944 1 2.6089196334915452e+00 1.7772486790029900e+00 1.7626836530354935e+00 1 1 1
957 1 1.0156082494900307e+00 1.0020518843541872e+00 3.1039998447182247e+00 1 1 1
965 2 2.1190896482346910e-01 5.3704969667288016e-01 3.3926301166781361e+00 1 1 1
966 2 1.7795059073241641e+00 2.2912132328235852e+00 2.2325868025779988e-01 1 1 1
2 1 5.4360640127971100e+00 8.1686476994100818e+00 5.8450164565764853e+00 0 0 0
3 1 5.8494225861022251e+00 7.7364319005778501e+00 4.4056713583975613e+00 0 0 0
20 1 7.3648512239175332e+00 6.0175954303882673e+00 3.7770593084196769e+00 0 0 0
27 2 5.1296711453067321e+00 8.1549720011702203e+00 4.9203021300869629e+00 0 0 0
218 1 5.5442576638849683e+00 1.8623001714267695e+00 5.8450157029520708e+00 0 1 0
219 1 5.9576173147543461e+00 1.4300894475630326e+00 4.4056693851946136e+00 0 1 0
236 1 7.4730442867421205e+00 -2.8874592348506112e-01 3.7770583149777934e+00 0 1 0
243 2 5.2378651665321367e+00 1.8486271682128788e+00 4.9203011330946014e+00 0 1 0
74 1 -1.4749547636900660e+00 8.1686422431255163e+00 5.8450114912847324e+00 1 0 0
75 1 -1.0615937434700460e+00 7.7364347510783231e+00 4.4056647708067471e+00 1 0 0
92 1 4.5383681749286620e-01 6.0176036080935038e+00 3.7770572701386440e+00 1 0 0
99 2 -1.7813465824757713e+00 8.1549711004177681e+00 4.9202967264567583e+00 1 0 0
290 1 -1.3667636140900556e+00 1.8622927682131862e+00 5.8450157341389382e+00 1 1 0
291 1 -9.5340397054006143e-01 1.4300855148746743e+00 4.4056689009672274e+00 1 1 0
308 1 5.6202766056547127e-01 -2.8874413620617922e-01 3.7770631429636574e+00 1 1 0
315 2 -1.6731567809699399e+00 1.8486214059600776e+00 4.9203014377330074e+00 1 1 0
4 1 4.1391370639060439e+00 3.0991445485461409e+00 1.0056032165893022e+01 0 0 0
23 1 4.4003917133629891e+00 4.5453809443468218e+00 8.1140494001690477e+00 0 0 0
28 2 4.7746125833486630e+00 5.1561767382389805e+00 7.4545464038965328e+00 0 0 0
35 2 4.0390660834966008e+00 3.0887103073621485e+00 9.0966268109714417e+00 0 0 0
652 1 7.1284396691943037e+00 3.9181818370703869e+00 2.6451037451519559e+00 0 0 1
671 1 7.3896906062810324e+00 5.3644190923090882e+00 7.0311891603694954e-01 0 0 1
676 2 7.7639126696399128e+00 5.9752151015580282e+00 4.3616840832659855e-02 0 0 1
683 2 7.0283694762092033e+00 3.9077473762855606e+00 1.6856983456800667e+00 0 0 1
76 1 -2.7718908398663209e+00 3.0991343549520520e+00 1.0056021845428191e+01 1 0 0
95 1 -2.5106320374445650e+00 4.5453664682080959e+00 8.1140348290221969e+00 1 0 0
100 2 -2.1364075683561570e+00 5.1561611062480859e+00 7.4545328438875265e+00 1 0 0
107 2 -2.8719610670092970e+00 3.0886981712635277e+00 9.0966164214668712e+00 1 0 0
724 1 2.1742605430018447e-01 3.9181908627039848e+00 2.6451088369578382e+00 1 0 1
743 1 4.7867928815528493e-01 5.3644233911997894e+00 7.0311981709629545e-01 1 0 1
748 2 8.5290224601051434e-01 5.9752164454805365e+00 4.3615580885697808e-02 1 0 1
755 2 1.1735360272604534e-01 3.9077549614828038e+00 1.6857036341519642e+00 1 0 1
15 1 7.8059511784374536e+00 4.3300774157712612e+00 5.3374422941659194e+00 0 0 0
22 1 6.4700995743162881e+00 4.4703309731216070e+00 7.1589902665284351e+00 0 0 0
24 1 4.0753444184830556e+00 5.3589740136886617e+00 6.8129616284955015e+00 0 0 0
26 2 8.0221507368991443e+00 4.4954037924139580e+00 4.3975019759377867e+00 0 0 0
34 2 7.4028197194256258e+00 4.2153042859855940e+00 7.0658939360131487e+00 0 0 0
87 1 8.9493809887444398e-01 4.3300840757287560e+00 5.3374452503669758e+00 1 0 0
94 1 -4.4091575684432627e-01 4.4703203130367530e+00 7.1589885732567584e+00 1 0 0
96 1 -2.8356730035065185e+00 5.3589601746090985e+00 6.8129456766095799e+00 1 0 0
98 2 1.1111381604075314e+00 4.4954150206513841e+00 4.3975058021496940e+00 1 0 0
106 2 4.9180597894296652e-01 4.2152983553838377e+00 7.0658953496532106e+00 1 0 0
10 1 9.6416338174885752e-01 5.7886584985218992e+00 9.7934642118131627e+00 0 0 0
11 1 2.4579059777304111e+00 5.4032520236875143e+00 9.7510471297759782e+00 0 0 0
32 2 1.8256784699734347e+00 8.1424438428211570e+00 7.9597380933023105e+00 0 0 0
658 1 3.9534765962870533e+00 6.6076990822954871e+00 2.3825392480795440e+00 0 0 1
659 1 5.4472188905124312e+00 6.2222910031662515e+00 2.3401242444206294e+00 0 0 1
680 2 4.8149861405723353e+00 8.9614949585412909e+00 5.4880801472997776e-01 0 0 1
226 1 1.0723611666908890e+00 -5.1768858850638322e-01 9.7934619509986529e+00 0 1 0
227 1 2.5661020938558470e+00 -9.0310065869158818e-01 9.7510402718212070e+00 0 1 0
248 2 1.9338782316746466e+00 1.8360992088092170e+00 7.9597358067847015e+00 0 1 0
874 1 4.0616647851256742e+00 3.0135426854790881e-01 2.3825474877401112e+00 0 1 1
875 1 5.5554063489740404e+00 -8.4054575818457378e-02 2.3401272650198002e+00 0 1 1
896 2 4.9231805418823473e+00 2.6551358971682091e+00 5.4881126482905429e-01 0 1 1
81 1 -1.2293430505891934e-02 7.8000382366448004e+00 1.0506533927935545e+01 1 0 0
103 2 -3.4248401155049901e-01 6.9790673895528732e+00 1.0094225459452648e+01 1 0 0
729 1 2.9770241632018779e+00 8.6190799435962280e+00 3.0956107663159029e+00 1 0 1
751 2 2.6468322191581386e+00 7.7981111911872087e+00 2.6832991052844601e+00 1 0 1
297 1 9.5907817422066444e-02 1.4936926137059718e+00 1.0506538289721208e+01 1 1 0
319 2 -2.3428283588937004e-01 6.7272261163632807e-01 1.0094228286387075e+01 1 1 0
945 1 3.0852151281366731e+00 2.3127380810561839e+00 3.0956217163255544e+00 1 1 1
967 2 2.7550227100808788e+00 1.4917690723518700e+00 2.6833110194391803e+00 1 1 1
1 1 3.6106161284870724e+00 7.0882093335492442e+00 5.3324161662707601e+00 0 0 0
18 1 2.1465300034057027e+00 7.6155759301572772e+00 7.2118456495592005e+00 0 0 0
25 2 2.9609840515751702e+00 6.5748988996452074e+00 5.8433057800568546e+00 0 0 0
217 1 3.7188109956721229e+00 7.8186208912937594e-01 5.3324128196834293e+00 0 1 0
234 1 2.2547279344922271e+00 1.3092310001341643e+00 7.2118429025776862e+00 0 1 0
241 2 3.0691795395742512e+00 2.6855127473210239e-01 5.8433028149867843e+00 0 1 0
85 1 2.3792045114385427e+00 6.1520670282900856e+00 5.2052576659371228e+00 1 0 0
301 1 2.4873986243613007e+00 -1.5427913325676906e-01 5.2052550213185720e+00 1 1 0
5 1 3.1864727608294809e+00 2.6665647016138960e+00 8.8554066856520368e+00 0 0 0
17 1 1.1273895698316139e+00 3.6541439449411866e+00 1.0648813980291004e+01 0 0 0
33 2 1.5722822670835899e+00 5.0580583451593917e+00 9.5618008496821751e+00 0 0 0
653 1 6.1757762035388302e+00 3.4856014624991527e+00 1.4444781869653378e+00 0 0 1
665 1 4.1167004177381097e+00 4.4731875133662511e+00 3.2378924086948597e+00 0 0 1
681 2 4.5615950387575479e+00 5.8770985559803304e+00 2.1508758873150602e+00 0 0 1
86 1 9.4497159089846461e-01 4.6405760050549354e+00 7.8126570176608423e+00 1 0 0
734 1 3.9342810140729281e+00 5.4596177615783468e+00 4.0173034608345415e-01 1 0 1
304 1 1.2594390060363900e+00 2.4326562679363204e+00 7.6113727266059064e+00 1 1 0
952 1 4.2487385747944701e+00 3.2516905951886472e+00 2.0045011128431611e-01 1 1 1
19 1 4.4010392362228625e+00 3.3065030360185563e+00 4.2805777840282291e+00 0 0 0
36 2 3.7036906150718281e+00 3.8159204844477475e+00 3.8268071029041080e+00 0 0 0
84 1 2.0331553444054409e+00 4.2013629544756874e+00 4.2721140601404795e+00 1 0 0
192 1 1.9249591711819412e+00 1.0507701512293060e+01 4.2721077590326386e+00 1 0 0
114 1 4.8801181104532301e+00 1.4661067478267716e+01 8.1420228251074640e+00 0 0 0
115 1 5.1051743527357276e+00 1.3186742909836443e+01 7.6425822915760264e+00 0 0 0
116 1 6.3142479029211707e+00 1.3570900090153451e+01 9.1735909701151339e+00 0 0 0
129 1 4.7209322564199514e+00 1.2795707518746275e+01 1.0514907007094385e+01 0 0 0
137 2 3.9172325024943824e+00 1.2330706986016349e+01 1.0803538261517330e+01 0 0 0
138 2 5.4848315743107960e+00 1.4084863653379900e+01 7.6341677501156333e+00 0 0 0
762 1 7.8694265127411489e+00 1.5480115617027806e+01 7.3110774771585540e-01 0 0 1
763 1 8.0944832944038758e+00 1.4005792905965070e+01 2.3166182278153469e-01 0 0 1
764 1 9.3035536617049637e+00 1.4389943793887831e+01 1.7626734956294750e+00 0 0 1
777 1 7.7102410095896277e+00 1.3614746682840702e+01 3.1039881598994485e+00 0 0 1
785 2 6.9065413824608637e+00 1.3149745540374468e+01 3.3926191016755198e+00 0 0 1
786 2 8.4741409342157734e+00 1.4903913498525405e+01 2.2325173307244231e-01 0 0 1
186 1 -2.0309028247580474e+00 1.4661054798101627e+01 8.1420218825385735e+00 1 0 0
187 1 -1.8058448320575342e+00 1.3186730558672588e+01 7.6425804905157877e+00 1 0 0
188 1 -5.9677799759147243e-01 1.3570894584625259e+01 9.1735946416551517e+00 1 0 0
201 1 -2.1900889562498200e+00 1.2795697582058372e+01 1.0514906495986702e+01 1 0 0
209 2 -2.9937889086584324e+00 1.2330694777980431e+01 1.0803533763990238e+01 1 0 0
210 2 -1.4261862808970323e+00 1.4084850806642741e+01 7.6341704463230986e+00 1 0 0
834 1 9.5840430616984751e-01 1.5480113691479122e+01 7.3111569703861679e-01 1 0 1
835 1 1.1834575510462773e+00 1.4005789965066510e+01 2.3167087378836276e-01 1 0 1
836 1 2.3925348166876801e+00 1.4389944636083852e+01 1.7626795949133209e+00 1 0 1
849 1 7.9922575851662647e-01 1.3614741376941467e+01 3.1039929002445819e+00 1 0 1
857 2 -4.4739000360174419e-03 1.3149738601330817e+01 3.3926212002173148e+00 1 0 1
858 2 1.5631164235159607e+00 1.4903910007622635e+01 2.2325871330116501e-01 1 0 1
110 1 5.3278697142248443e+00 1.4474990531936609e+01 5.8450086596056430e+00 0 0 0
111 1 5.7412294243857227e+00 1.4042781820631639e+01 4.4056617800743325e+00 0 0 0
128 1 7.2566593478749883e+00 1.2323950771392720e+01 3.7770507024413456e+00 0 0 0
135 2 5.0214766330273282e+00 1.4461317544492706e+01 4.9202942409591515e+00 0 0 0
182 1 -1.5831421897660276e+00 1.4474983908672167e+01 5.8450098633254726e+00 1 0 0
183 1 -1.1697839165629544e+00 1.4042775457918149e+01 4.4056625566665817e+00 1 0 0
200 1 3.4564398805007035e-01 1.2323943567900020e+01 3.7770523488820622e+00 1 0 0
207 2 -1.8895354558207555e+00 1.4461312894576979e+01 4.9202956056726306e+00 1 0 0
112 1 4.0309382455262099e+00 9.4054959680061074e+00 1.0056028397503065e+01 0 0 0
131 1 4.2921960029249826e+00 1.0851727281630794e+01 8.1140417883781506e+00 0 0 0
136 2 4.6664184120246670e+00 1.1462520769928197e+01 7.4545375549007735e+00 0 0 0
143 2 3.9308662978056197e+00 9.3950601918640206e+00 9.0966229560961231e+00 0 0 0
760 1 7.0202461141505861e+00 1.0224538101817547e+01 2.6450991199250584e+00 0 0 1
779 1 7.2815024909932795e+00 1.1670775760916506e+01 7.0311593524302585e-01 0 0 1
300 1 1.8167701608399729e+00 1.6814059134762513e+01 4.2721172004777443e+00 1 0 0
791 2 6.9201768858401591e+00 1.0214103655737119e+01 1.6856935885173485e+00 0 0 1
220 1 3.9227515040330809e+00 1.5711836325429184e+01 1.0056024205518558e+01 0 0 0
239 1 4.1840102056559498e+00 1.7158075758555277e+01 8.1140432517528431e+00 0 0 0
244 2 4.5582336188535599e+00 1.7768871313895097e+01 7.4545415627007756e+00 0 0 0
251 2 3.8226804695214227e+00 1.5701403550825111e+01 9.0966188631732940e+00 0 0 0
868 1 6.9120588706388837e+00 1.6530886252289424e+01 2.6451057389781414e+00 0 0 1
887 1 7.1733145990760319e+00 1.7977120368788000e+01 7.0311987368203976e-01 0 0 1
892 2 7.5475379249499479e+00 1.8587914363396926e+01 4.3616669070565814e-02 0 0 1
899 2 6.8119877785628473e+00 1.6520451336767852e+01 1.6857003668689896e+00 0 0 1
184 1 -2.8800925923286362e+00 9.4054805716379981e+00 1.0056014600890411e+01 1 0 0
203 1 -2.6188287049933074e+00 1.0851714707234146e+01 8.1140306576637720e+00 1 0 0
208 2 -2.2446034904574730e+00 1.1462509298625296e+01 7.4545290660649810e+00 1 0 0
215 2 -2.9801602850690361e+00 9.3950452647314915e+00 9.0966090167042157e+00 1 0 0
832 1 1.0922976299483556e-01 1.0224528086421751e+01 2.6451027079658140e+00 1 0 1
851 1 3.7047906038269673e-01 1.1670771005724626e+01 7.0312267824521735e-01 1 0 1
856 2 7.4470004720236238e-01 1.2281568336611649e+01 4.3621266398490843e-02 1 0 1
863 2 9.1584227618117797e-03 1.0214095821982465e+01 1.6856973776309054e+00 1 0 1
292 1 -2.9882723466734622e+00 1.5711829561172671e+01 1.0056017439703835e+01 1 0 0
311 1 -2.7270124004230047e+00 1.7158063577689678e+01 8.1140370226904732e+00 1 0 0
316 2 -2.3527888659092211e+00 1.7768860592448654e+01 7.4545366086372091e+00 1 0 0
323 2 -3.0883417939411615e+00 1.5701393116826647e+01 9.0966117767173120e+00 1 0 0
940 1 1.0440739158439349e-03 1.6530887728085872e+01 2.6451165215397650e+00 1 0 1
959 1 2.6229863099275108e-01 1.7977122516369501e+01 7.0313320844859273e-01 1 0 1
964 2 6.3651957650892554e-01 1.8587917178684297e+01 4.3629197599444738e-02 1 0 1
971 2 -9.9028541389592828e-02 1.6520452815534817e+01 1.6857112335641837e+00 1 0 1
123 1 7.6977554410532099e+00 1.0636429356194272e+01 5.3374363902996658e+00 0 0 0
130 1 6.3619048755030203e+00 1.0776672624937452e+01 7.1589825753193548e+00 0 0 0
132 1 3.9671505984162247e+00 1.1665318782004285e+01 6.8129525688869217e+00 0 0 0
134 2 7.9139561648707213e+00 1.0801759455279155e+01 4.3974968348764110e+00 0 0 0
142 2 7.2946247802877746e+00 1.0521645308066340e+01 7.0658858300204228e+00 0 0 0
231 1 7.5895696935995378e+00 1.6942778852906631e+01 5.3374420964068756e+00 0 0 0
238 1 6.2537191614943159e+00 1.7083021659328317e+01 7.1589878659896291e+00 0 0 0
240 1 3.8589669473669042e+00 1.7971670346477243e+01 6.8129557096730808e+00 0 0 0
242 2 7.8057694878387789e+00 1.7108109737042298e+01 4.3975024986994882e+00 0 0 0
250 2 7.1864391268890255e+00 1.6827994148994868e+01 7.0658915331944669e+00 0 0 0
195 1 7.8674184740430420e-01 1.0636423305634867e+01 5.3374390624125772e+00 1 0 0
202 1 -5.4911279262846913e-01 1.0776666801836573e+01 7.1589831391411529e+00 1 0 0
204 1 -2.9438692983280577e+00 1.1665310485894745e+01 6.8129429506618520e+00 1 0 0
206 2 1.0029416821089254e+00 1.0801752587906169e+01 4.3974992775789579e+00 1 0 0
214 2 3.8360843647280340e-01 1.0521643134971676e+01 7.0658896739376784e+00 1 0 0
303 1 6.7855312426362202e-01 1.6942780429023184e+01 5.3374487338982686e+00 1 0 0
310 1 -6.5730132015495357e-01 1.7083015911703761e+01 7.1589899452953674e+00 1 0 0
312 1 -3.0520552629373094e+00 1.7971660455289985e+01 6.8129507084048644e+00 1 0 0
314 2 8.9475334355622160e-01 1.7108112227457863e+01 4.3975093498102167e+00 1 0 0
322 2 2.7541948433702901e-01 1.6827990092155545e+01 7.0658968282833845e+00 1 0 0
118 1 8.5597057763974238e-01 1.2095006056615958e+01 9.7934587663562311e+00 0 0 0
119 1 2.3497121169494641e+00 1.1709597226658284e+01 9.7510366450535138e+00 0 0 0
140 2 1.7174926520717553e+00 1.4448788689697977e+01 7.9597322775878316e+00 0 0 0
766 1 3.8452800789507284e+00 1.2914050206272643e+01 2.3825426817859059e+00 0 0 1
767 1 5.3390216135844106e+00 1.2528641925223123e+01 2.3401196087688203e+00 0 0 1
788 2 4.7067956312306540e+00 1.5267843368355154e+01 5.4881559972463545e-01 0 0 1
189 1 -1.2048238264065247e-01 1.4106388132341952e+01 1.0506531256509810e+01 1 0 0
211 2 -4.5067308750081247e-01 1.3285417438364803e+01 1.0094222768592786e+01 1 0 0
837 1 2.8688300779646787e+00 1.4925433136163473e+01 3.0956180688673172e+00 1 0 1
859 2 2.5386390073606231e+00 1.4104464023543757e+01 2.6833065657513897e+00 1 0 1
109 1 3.5024208973841220e+00 1.3394551579966661e+01 5.3324053118710628e+00 0 0 0
126 1 2.0383403841049992e+00 1.3921920596053630e+01 7.2118384005977028e+00 0 0 0
133 2 2.8527901695877964e+00 1.2881241085686142e+01 5.8432964197120381e+00 0 0 0
193 1 2.2710092756601199e+00 1.2458409167726598e+01 5.2052495953636999e+00 1 0 0
113 1 3.0782732526861873e+00 8.9729133352703450e+00 8.8554043596242700e+00 0 0 0
125 1 1.0191898524771714e+00 9.9604902112487963e+00 1.0648805783382622e+01 0 0 0
141 2 1.4640873384578836e+00 1.1364404635072038e+01 9.5617938026522111e+00 0 0 0
761 1 6.0675825023431500e+00 9.7919603130079356e+00 1.4444726908047574e+00 0 0 1
773 1 4.0085050317280952e+00 1.0779531553740034e+01 3.2378872370959644e+00 0 0 1
789 2 4.4533968867589087e+00 1.2183449284569052e+01 2.1508762000748063e+00 0 0 1
221 1 2.9700875468740393e+00 1.5279257079434892e+01 8.8553985980241379e+00 0 0 0
233 1 9.1100269511746834e-01 1.6266840813449750e+01 1.0648805410476154e+01 0 0 0
249 2 1.3559039411229827e+00 1.7670756080807624e+01 9.5617963851075061e+00 0 0 0
869 1 5.9593933144811766e+00 1.6098307304088646e+01 1.4444812085292296e+00 0 0 1
881 1 3.9003146124962953e+00 1.7085884141648837e+01 3.2378942795740588e+00 0 0 1
897 2 4.3452091412611713e+00 1.8489800040978871e+01 2.1508826142160808e+00 0 0 1
88 1 1.1512382559825296e+00 8.7389990594996547e+00 7.6113740594679857e+00 1 0 0
736 1 4.1405420441789271e+00 9.5580472035136985e+00 2.0044692814173962e-01 1 0 1
194 1 8.3677514245277917e-01 1.0946921090000773e+01 7.8126504708089941e+00 1 0 0
196 1 1.0430516993854289e+00 1.5045344979965433e+01 7.6113714899792964e+00 1 0 0
842 1 3.8260782572912042e+00 1.1765972362013876e+01 4.0173263556467426e-01 1 0 1
844 1 4.0323550759646984e+00 1.5864399855110241e+01 2.0045437618198766e-01 1 0 1
302 1 7.2858740191062576e-01 1.7253269101487941e+01 7.8126562951601288e+00 1 0 0
950 1 3.7178952502364249e+00 1.8072320700525612e+01 4.0173707207883513e-01 1 0 1
127 1 4.2928442620609584e+00 9.6128468518077934e+00 4.2805723480683184e+00 0 0 0
144 2 3.5954956182998847e+00 1.0122261892546858e+01 3.8267991599471940e+00 0 0 0
235 1 4.1846524311655360e+00 1.5919195556297179e+01 4.2805753635396915e+00 0 0 0
252 2 3.4873042690886171e+00 1.6428615652424273e+01 3.8268068392118666e+00 0 0 0
784 2 7.6557255535389954e+00 1.2281571098441509e+01 4.3613781942849997e-02 0 0 1
330 1 1.9990017788645602e+00 7.5356703263865370e+00 1.5552945688287771e+01 0 0 0
331 1 2.2240578196207812e+00 6.0613468647221644e+00 1.5053502276558747e+01 0 0 0
332 1 3.4331343963028784e+00 6.4454965124784955e+00 1.6584513495984897e+01 0 0 0
345 1 1.8398227384018480e+00 5.6702944612488704e+00 1.7925826600835371e+01 0 0 0
353 2 1.0361236498868180e+00 5.2052913596674397e+00 1.8214455909027784e+01 0 0 0
354 2 2.6037162761635839e+00 6.9594670636457643e+00 1.5045091016426847e+01 0 0 0
546 1 2.1072014642736274e+00 1.2293158097953676e+00 1.5552939287132272e+01 0 1 0
547 1 2.3322597972546300e+00 -2.4500812043700715e-01 1.5053498363799148e+01 0 1 0
548 1 3.5413318003518013e+00 1.3914682266017619e-01 1.6584511252140796e+01 0 1 0
561 1 1.9480181187132297e+00 -6.3605312752238530e-01 1.7925823745562962e+01 0 1 0
569 2 1.1443181892922016e+00 -1.1010552601691959e+00 1.8214452169309460e+01 0 1 0
570 2 2.7119176695854490e+00 6.5311231717317830e-01 1.5045086908916737e+01 0 1 0
402 1 -4.9120196794286795e+00 7.5356650556272724e+00 1.5552947888710399e+01 1 0 0
403 1 -4.6869611524966110e+00 6.0613414190889010e+00 1.5053505533713233e+01 1 0 0
404 1 -3.4778842672610493e+00 6.4454959406300256e+00 1.6584515312509897e+01 1 0 0
417 1 -5.0711948875340962e+00 5.6702929311238739e+00 1.7925828575705488e+01 1 0 0
425 2 -5.8748947019825062e+00 5.2052906975730888e+00 1.8214457251109657e+01 1 0 0
426 2 -4.3073044274194476e+00 6.9594622804273749e+00 1.5045093546192842e+01 1 0 0
618 1 -4.8038255167169144e+00 1.2293101437258682e+00 1.5552941672216942e+01 1 1 0
619 1 -4.5787699652621594e+00 -2.4501411679395169e-01 1.5053499430303873e+01 1 1 0
620 1 -3.3697000423959991e+00 1.3913815407085406e-01 1.6584510503770147e+01 1 1 0
633 1 -4.9630079796423647e+00 -6.3606224612399087e-01 1.7925829278185365e+01 1 1 0
641 2 -5.7667072319143795e+00 -1.1010644390119486e+00 1.8214459330152639e+01 1 1 0
642 2 -4.1991104319793591e+00 6.5310566053514973e-01 1.5045088954823271e+01 1 1 0
326 1 2.4467504187545801e+00 7.3496057029032738e+00 1.3255932550428032e+01 0 0 0
327 1 2.8601091827264007e+00 6.9173956817271129e+00 1.1816586712539479e+01 0 0 0
344 1 4.3755427968431055e+00 5.1985617483078128e+00 1.1187982829449597e+01 0 0 0
351 2 2.1403568887496691e+00 7.3359332866830984e+00 1.2331218322507597e+01 0 0 0
650 1 -5.4254620759608851e-01 6.5305329947885529e+00 2.0666844396939947e+01 0 0 0
651 1 -1.2918890659452309e-01 6.0983281166420102e+00 1.9227496454455622e+01 0 0 0
668 1 1.3862425832624226e+00 4.3794964605809650e+00 1.8598886269442072e+01 0 0 0
675 2 -8.4894018058654730e-01 6.5168648145170707e+00 1.9742130322772454e+01 0 0 0
542 1 2.5549554239665051e+00 1.0432497798159008e+00 1.3255928497686790e+01 0 1 0
543 1 2.9683127705728847e+00 6.1104214356741027e-01 1.1816581090778147e+01 0 1 0
560 1 4.4837400890714338e+00 -1.1077930616183829e+00 1.1187974009602037e+01 0 1 0
567 2 2.2485614187786647e+00 1.0295794299666092e+00 1.2331214383996187e+01 0 1 0
866 1 -4.3435415549674161e-01 2.2418513878054158e-01 2.0666839922592327e+01 0 1 0
867 1 -2.0995386282423034e-02 -2.0802054516603752e-01 1.9227492580149768e+01 0 1 0
884 1 1.4944356610046574e+00 -1.9268499202774017e+00 1.8598884511483671e+01 0 1 0
891 2 -7.4074793581399057e-01 2.1051480875838324e-01 1.9742125843285617e+01 0 1 0
398 1 -4.4642684283067471e+00 7.3495982318253548e+00 1.3255933431393606e+01 1 0 0
399 1 -4.0509095083828637e+00 6.9173872350739227e+00 1.1816587613895130e+01 1 0 0
416 1 -2.5354792675259192e+00 5.1985521544565918e+00 1.1187976775594587e+01 1 0 0
423 2 -4.7706614865052641e+00 7.3359255577270837e+00 1.2331219112434635e+01 1 0 0
722 1 -7.4535690356413529e+00 6.5305356049701064e+00 2.0666839796746167e+01 1 0 0
723 1 -7.0402094518010019e+00 6.0983292616943858e+00 1.9227493274814080e+01 1 0 0
740 1 -5.5247773574420318e+00 4.3794950248623890e+00 1.8598887516744032e+01 1 0 0
747 2 -7.7599620811934500e+00 6.5168658441177332e+00 1.9742125323925247e+01 1 0 0
614 1 -4.3560732936277180e+00 1.0432421998982297e+00 1.3255929595530345e+01 1 1 0
615 1 -3.9427146269904441e+00 6.1103651856317587e-01 1.1816581964274992e+01 1 1 0
632 1 -2.4272843779625140e+00 -1.1077948860298619e+00 1.1187969182628834e+01 1 1 0
639 2 -4.6624671459348281e+00 1.0295715434941553e+00 1.2331215483921415e+01 1 1 0
938 1 -7.3453776214909796e+00 2.2418153437885335e-01 2.0666846663112576e+01 1 1 0
939 1 -6.9320209604021246e+00 -2.0802809620614160e-01 1.9227499937460927e+01 1 1 0
956 1 -5.4165889342402878e+00 -1.9268596675008021e+00 1.8598889846986385e+01 1 1 0
963 2 -7.6517725533710452e+00 2.1050913479307765e-01 1.9742132920502716e+01 1 1 0
328 1 1.1498287900678807e+00 2.2800834848264606e+00 1.7466932561309108e+01 0 0 0
347 1 1.4110793508196950e+00 3.7263268259651916e+00 1.5524953680641435e+01 0 0 0
352 2 1.7853014390814339e+00 4.3371245795027935e+00 1.4865453261759827e+01 0 0 0
359 2 1.0497578539479449e+00 2.2696513522442654e+00 1.6507527182499658e+01 0 0 0
400 1 -5.7611950149406219e+00 2.2800790614672488e+00 1.7466934986132312e+01 1 0 0
419 1 -5.4999380289682716e+00 3.7263203256397168e+00 1.5524955293013324e+01 1 0 0
424 2 -5.1257149689669035e+00 4.3371170461858339e+00 1.4865454529564298e+01 1 0 0
431 2 -5.8612661052493902e+00 2.2696465046988594e+00 1.6507529577660396e+01 1 0 0
339 1 4.8166461047297471e+00 3.5110372755762338e+00 1.2748366601071874e+01 0 0 0
346 1 3.4807909423167054e+00 3.6512773871537849e+00 1.4569907674183494e+01 0 0 0
348 1 1.0860346354848396e+00 4.5399235613280888e+00 1.4223867568349604e+01 0 0 0
350 2 5.0328479054684898e+00 3.6763708570663072e+00 1.1808427866651240e+01 0 0 0
732 1 -3.9454634231195795e+00 2.5632496449128435e+00 1.9093936118041469e+01 1 0 0
663 1 1.8273383761316317e+00 2.6919697816632207e+00 2.0159267506992354e+01 0 0 0
670 1 4.9148569352878013e-01 2.8322036931000789e+00 2.1980811773924742e+01 0 0 0
672 1 -1.9032698063681650e+00 3.7208514971836171e+00 2.1634779888151893e+01 0 0 0
674 2 2.0435412413947729e+00 2.8573031750491511e+00 1.9219329029108700e+01 0 0 0
682 2 1.4242058312673933e+00 2.5771769380958678e+00 2.1887716089577637e+01 0 0 0
411 1 -2.0943775767450421e+00 3.5110299461278314e+00 1.2748357653547512e+01 1 0 0
418 1 -3.4302274245579079e+00 3.6512695687277978e+00 1.4569903246661351e+01 1 0 0
420 1 -5.8249821670296571e+00 4.5399175741092854e+00 1.4223869689451313e+01 1 0 0
422 2 -1.8781781282453625e+00 3.6763604471026281e+00 1.1808417906725325e+01 1 0 0
430 2 -2.4975074241910917e+00 3.3962421906581333e+00 1.4476807506568333e+01 1 0 0
735 1 -5.0836790465916888e+00 2.6919690973175774e+00 2.0159268153674368e+01 1 0 0
742 1 -6.4195246546314975e+00 2.8322055901003447e+00 2.1980814431584115e+01 1 0 0
408 1 -9.5615978691165715e-01 3.3823119575550615e+00 1.1683027752643763e+01 1 0 0
746 2 -4.8674806236828250e+00 2.8573009733423786e+00 1.9219328361348694e+01 1 0 0
754 2 -5.4868046960201129e+00 2.5771782659233615e+00 2.1887718063066146e+01 1 0 0
334 1 -2.0251379354121948e+00 4.9695993414135318e+00 1.7204376452375104e+01 0 0 0
335 1 -5.3139664793537289e-01 4.5841890459087749e+00 1.7161954329785999e+01 0 0 0
356 2 -1.1636284342698762e+00 7.3233947675709299e+00 1.5370649603325070e+01 0 0 0
550 1 -1.9169450426875221e+00 -1.3367503689924352e+00 1.7204369442452649e+01 0 1 0
551 1 -4.2320307064819662e-01 -1.7221588897666822e+00 1.7161947679475436e+01 0 1 0
572 2 -1.0554307379295294e+00 1.0170380677461168e+00 1.5370640787417834e+01 0 1 0
405 1 -3.0015889023193258e+00 6.9809818375149995e+00 1.7917454661162868e+01 1 0 0
427 2 -3.3317799335748850e+00 6.1600135393846873e+00 1.7505141646468932e+01 1 0 0
621 1 -2.8934004520950323e+00 6.7462678444394375e-01 1.7917447253102861e+01 1 1 0
643 2 -3.2235925910573915e+00 -1.4634251829601608e-01 1.7505137020530125e+01 1 1 0
325 1 6.2130557210068904e-01 6.2691656150973305e+00 1.2743327729366516e+01 0 0 0
342 1 -8.4277847508484705e-01 6.7965270185097477e+00 1.4622756345459084e+01 0 0 0
349 2 -2.8325834742487288e-02 5.7558524109472788e+00 1.3254215556061592e+01 0 0 0
649 1 -2.3679923098841469e+00 5.4500971471486519e+00 2.0154238726065064e+01 0 0 0
666 1 -3.8320796160759283e+00 5.9774622466287148e+00 2.2033662421901948e+01 0 0 0
673 2 -3.0176246374865263e+00 4.9367845757563718e+00 2.0665126015937812e+01 0 0 0
541 1 7.2951225115657525e-01 -3.7187911468525625e-02 1.2743323151222382e+01 0 1 0
558 1 -7.3457983364072721e-01 4.9017280871794688e-01 1.4622746136706548e+01 0 1 0
565 2 7.9879113340670216e-02 -5.5050202836686979e-01 1.3254208095787286e+01 0 1 0
865 1 -2.2597991759865046e+00 -8.5625539921736671e-01 2.0154235939473352e+01 0 1 0
882 1 -3.7238838750636143e+00 -3.2889450177129653e-01 2.2033664652891105e+01 0 1 0
889 2 -2.9094299300743982e+00 -1.3695682250166232e+00 2.0665124829924117e+01 0 1 0
409 1 -6.1010549324134722e-01 5.3330234018318237e+00 1.2616165867345680e+01 1 0 0
733 1 -3.5994043062172780e+00 4.5139562752287929e+00 2.0027075797469976e+01 1 0 0
625 1 -5.0189925984694472e-01 -9.7332815706367515e-01 1.2616155449495881e+01 1 1 0