LAMMPS data file via write_data, version 5 Jun 2019, timestep = 0

1920 atoms
2 atom types

0.0000000000000000e+00 2.5211593968892299e+01 xlo xhi
0.0000000000000000e+00 2.5186509013497201e+01 ylo yhi
0.0000000000000000e+00 2.3377276758747101e+01 zlo zhi
-2.2978859517957698e-02 4.8147231869708297e-02 -8.6062802176357697e-03 xy xz yz

Masses

1 1.008
2 15.9994

Atoms # atomic

1 2 4.8757335100334140e+00 1.7001406717422141e+00 4.3021705560006094e+00 0 0 0
2 1 4.8334238367584677e+00 9.0563273232367225e-01 4.8578626470267396e+00 0 0 0
3 1 4.0877258897341848e+00 1.7040703505008288e+00 3.7258877197557472e+00 0 0 0
4 2 2.9987740297591796e+00 1.7498992026002578e+00 2.2619497209770820e+00 0 0 0
5 1 3.2663092849948097e+00 9.6637292364968796e-01 1.7571483687286611e+00 0 0 0
6 1 2.0201734321258762e+00 1.7368387625612205e+00 2.2697778881963044e+00 0 0 0
7 2 6.0535492050393458e+00 4.5757845167519688e+00 3.8054415034888427e+00 0 0 0
8 1 6.4368818615540997e+00 4.6261090861052718e+00 2.9128975774971435e+00 0 0 0
9 1 6.4826787917006108e+00 5.3015355631611367e+00 4.2935696785877449e+00 0 0 0
10 2 3.2541659486669401e+00 4.5898344199289687e+00 3.7082708189546718e+00 0 0 0
11 1 4.2290698483883826e+00 4.5747822155597566e+00 3.7650129735752071e+00 0 0 0
12 1 2.9613867972406611e+00 5.3669533250781853e+00 4.2122778301939299e+00 0 0 0
13 2 1.4296869057485053e+00 2.9214402680542828e+00 5.0182289179178872e+00 0 0 0
14 1 1.4566667936547504e+00 3.3275093832135583e+00 5.9018616272106579e+00 0 0 0
15 1 2.1766151976986503e+00 3.3374058257034021e+00 4.5489648055384100e+00 0 0 0
16 2 2.3519045264772789e-01 1.7286931660548648e+00 2.2475462541634097e+00 0 0 0
19 2 4.8222269842372949e+00 3.3140084024154053e+00 6.7922688014838339e-01 0 0 0
20 1 4.8256443037555243e+00 4.2887160984179555e+00 7.1183945899278955e-01 0 0 0
21 1 4.0673504494063106e+00 3.0190475761135636e+00 1.2145147072331990e+00 0 0 0
22 2 1.4573686279148110e+00 4.8208394415700120e+00 1.5307855929432259e+00 0 0 0
23 1 2.1931587110030528e+00 4.7338431560370209e+00 2.1630670478918552e+00 0 0 0
24 1 1.5213328341338024e+00 4.0523112865221469e+00 9.3646391763451720e-01 0 0 0
25 2 4.7975464412677464e+00 6.1289118598770642e+00 7.2563427069186048e-01 0 0 0
28 2 1.4274647757456487e+00 1.0227330207546373e-01 5.1314942269231034e+00 0 0 0
30 1 1.4260018648189730e+00 1.0770103182941908e+00 5.0925360444126300e+00 0 0 0
31 2 1.1121713006899064e+01 1.4856571896698376e+00 4.3917591472202142e+00 0 0 0
32 1 1.0333840323376638e+01 1.5534644214701450e+00 3.8237728326551075e+00 0 0 0
33 1 1.1078160544308201e+01 2.2343837435329554e+00 5.0140114259079045e+00 0 0 0
34 2 9.2826332243940648e+00 1.6619405854284162e+00 2.2806937710753346e+00 0 0 0
35 1 9.6105952269176189e+00 9.0167672848679559e-01 1.7738036507874315e+00 0 0 0
36 1 8.3092614047914957e+00 1.6380175901127643e+00 2.2009515272263886e+00 0 0 0
37 2 1.2337899736356649e+01 4.8810585125367885e+00 3.7497824310226968e+00 0 0 0
40 2 9.5680721717048449e+00 4.7803499268860250e+00 3.5979238191711769e+00 0 0 0
41 1 1.0542901012134642e+01 4.8043778388454452e+00 3.6580995759061636e+00 0 0 0
42 1 9.2743995989129928e+00 3.9944745006885487e+00 4.0846638074283446e+00 0 0 0
43 2 7.9962865897431818e+00 2.8468241433670207e+00 5.0636681097389991e+00 0 0 0
44 1 7.9679410966534956e+00 3.2748661271301374e+00 5.9362756761276536e+00 0 0 0
45 1 7.2197031530607072e+00 3.2171990671722792e+00 4.6123930494096994e+00 0 0 0
46 2 6.5108213160883226e+00 1.5089048806956806e+00 2.0432888633919237e+00 0 0 0
47 1 6.0830369825132813e+00 1.5552981576478395e+00 2.9178529061656837e+00 0 0 0
48 1 6.1108690202031388e+00 2.2519606393791158e+00 1.5589697020118922e+00 0 0 0
49 2 1.1097323236997326e+01 3.3188042453741415e+00 8.2910473978877874e-01 0 0 0
50 1 1.0362455158352898e+01 2.9414929838375685e+00 1.3450289812154792e+00 0 0 0
52 2 7.7493943107216481e+00 4.6515966888481906e+00 1.4470956018848462e+00 0 0 0
53 1 7.8260491129285210e+00 5.4142790966575340e+00 8.4672938926212948e-01 0 0 0
54 1 8.5172004639652119e+00 4.6957376769643977e+00 2.0439869672236592e+00 0 0 0
55 2 1.0937752615234569e+01 6.1548455287881003e+00 7.1740479854996719e-01 0 0 0
57 1 1.0978351466527219e+01 5.1822383361117623e+00 7.3752267034928642e-01 0 0 0
1589 1 1.4467755141766088e+00 6.0920164378789678e+00 1.5457827781968120e-01 0 0 1
60 1 7.8483749235304048e+00 1.0210947641756312e+00 5.1294197692967636e+00 0 0 0
77 1 1.2414127921239640e+01 1.4747909029357111e+00 3.0683055430401813e+00 0 0 0
78 1 1.2462208352094887e+01 2.1904663129622577e+00 1.7145822072896506e+00 0 0 0
98 1 1.1911327464911882e-01 4.8343987169898455e+00 2.8736852762599558e+00 1 0 0
99 1 9.0177539992596492e-02 4.0902793992976996e+00 4.2018513630432963e+00 1 0 0
150 1 8.9323579516715235e-01 6.1421483298657105e+00 4.6572341092791438e+00 0 0 0
180 1 8.5323379957058112e+00 6.0152033769333926e+00 4.6456653962131513e+00 0 0 0
387 1 5.3068996008235914e+00 1.4051876489658030e-01 1.1670064956106596e+00 0 1 0
417 1 1.1684709383564938e+01 1.5182786610938501e-01 1.3055993156888803e+00 0 1 0
481 2 4.7253441798906008e+00 1.3682177259302570e+00 1.0178618807810052e+01 0 0 0
482 1 4.7666921636472814e+00 2.1669346499576077e+00 1.0727618095799754e+01 0 0 0
483 1 5.4911767667584721e+00 1.3920779146001625e+00 9.5761380358817867e+00 0 0 0
484 2 3.1118117445078579e+00 1.5375383740270125e+00 7.8760029079913547e+00 0 0 0
485 1 2.1436313569564422e+00 1.6059088098570191e+00 7.9611268821757530e+00 0 0 0
486 1 3.4634934935489317e+00 1.4839423380499499e+00 8.7808660800245555e+00 0 0 0
487 2 6.0469675509146557e+00 4.7471828876695179e+00 9.6372025154966394e+00 0 0 0
488 1 6.4452058586028533e+00 4.7116304952163715e+00 8.7505365096652241e+00 0 0 0
489 1 6.4827777104092359e+00 4.0212511207263386e+00 1.0116113105128989e+01 0 0 0
490 2 3.2547203620812319e+00 4.6677544814537484e+00 9.7003255332598144e+00 0 0 0
491 1 2.9425050468933676e+00 4.7039570394653190e+00 8.7819756423372066e+00 0 0 0
492 1 4.2297752330357028e+00 4.6766597510221786e+00 9.6737129314497601e+00 0 0 0
493 2 1.4751751525818755e+00 2.9023302952211698e+00 1.0915379061430176e+01 0 0 0
495 1 2.2077614184227272e+00 3.3595724424334152e+00 1.0459706662776828e+01 0 0 0
496 2 3.0506360702048529e-01 1.6177875381081679e+00 8.1534442328797265e+00 0 0 0
499 2 4.9151689666915228e+00 3.3128212570604978e+00 6.5898334310235818e+00 0 0 0
500 1 4.1697685263561173e+00 2.8684365431165322e+00 7.0332642186239340e+00 0 0 0
501 1 4.9184501790586523e+00 2.9214375672457078e+00 5.6966327756876298e+00 0 0 0
502 2 1.6710715368911264e+00 4.6712848359477475e+00 7.3076553859593281e+00 0 0 0
503 1 9.2044660074792006e-01 4.7704024600011623e+00 7.9186697100328391e+00 0 0 0
504 1 1.6507889096133979e+00 5.4465042582584857e+00 6.7199941458066750e+00 0 0 0
505 2 4.9258103751600810e+00 6.0704134081856669e+00 6.5419435356101854e+00 0 0 0
506 1 4.9050947074188009e+00 5.0917860516919893e+00 6.5476566535447924e+00 0 0 0
508 2 1.6679150130193849e+00 1.3960277647276439e-01 1.0989323860073343e+01 0 0 0
509 1 1.6173915654447506e+00 1.1147205020494388e+00 1.0951536492913981e+01 0 0 0
511 2 1.1252442521828323e+01 1.5218244024233254e+00 1.0270237838629679e+01 0 0 0
512 1 1.0482715965096236e+01 1.5675680879827798e+00 9.6776192986620853e+00 0 0 0
513 1 1.1178881829019883e+01 2.2878620839319663e+00 1.0865964418136606e+01 0 0 0
514 2 9.3605894901492981e+00 1.5978184923481700e+00 8.1163576212626936e+00 0 0 0
515 1 9.8062590904993296e+00 8.4939290806965140e-01 7.6747269334690245e+00 0 0 0
516 1 9.7324827586467286e+00 2.3580916493700426e+00 7.6362901116390915e+00 0 0 0
517 2 1.2362377316434422e+01 4.5941504189627578e+00 9.6502241471119579e+00 0 0 0
520 2 9.5891126970104796e+00 4.5785418593436500e+00 9.5009765526590417e+00 0 0 0
521 1 9.2778141195997801e+00 5.3461006027415143e+00 1.0008536611391502e+01 0 0 0
522 1 1.0563803200086060e+01 4.5907566741028196e+00 9.5752631880371606e+00 0 0 0
523 2 7.8092765777763633e+00 2.9370883628883235e+00 1.0977117594251393e+01 0 0 0
525 1 8.5311732508568348e+00 3.3326867703804401e+00 1.0456055504010470e+01 0 0 0
526 2 6.5591527530668721e+00 1.4056637599672790e+00 8.0756217721675636e+00 0 0 0
527 1 7.5320520639177158e+00 1.4788532027002219e+00 8.0940350308751388e+00 0 0 0
528 1 6.2491686284508141e+00 2.1775970681352201e+00 7.5738410812577941e+00 0 0 0
529 2 1.1003869996542987e+01 3.3059810974795685e+00 6.5436197684376376e+00 0 0 0
530 1 1.1789297669812267e+01 3.0074354845826901e+00 7.0293984715289231e+00 0 0 0
531 1 1.1054495143457460e+01 4.2803991598518634e+00 6.5399270958467746e+00 0 0 0
532 2 7.7756505704077892e+00 4.5476444781484897e+00 7.3454792801253745e+00 0 0 0
533 1 7.7963673926336918e+00 5.2998020512307553e+00 6.7248973888487642e+00 0 0 0
534 1 8.5521697157565093e+00 4.6208813434570946e+00 7.9262341217638523e+00 0 0 0
535 2 1.1140157302254615e+01 6.1088551220425353e+00 6.5993057841237270e+00 0 0 0
538 2 7.9624396182192081e+00 1.3210548672292383e-01 1.1072994512865648e+01 0 0 0
540 1 7.9274939354240335e+00 1.1060028946135347e+00 1.1046252128643019e+01 0 0 0
557 1 1.2525087013508085e+01 1.7065245085662755e+00 8.8891104624428010e+00 0 0 0
558 1 1.2520272245243527e+01 9.4083799399357382e-01 7.5787913788941568e+00 0 0 0
579 1 1.6899546017289094e-01 4.0440936579405831e+00 9.9659763641188075e+00 1 0 0
629 1 8.3295462646530216e-01 6.0994546849139564e+00 1.0510446352082308e+01 0 0 0
630 1 2.3386731689153128e+00 6.0530498330415332e+00 1.0585677857569207e+01 0 0 0
659 1 7.2268048116576216e+00 6.1251471384327196e+00 1.0498947323336820e+01 0 0 0
866 1 4.0846755330686007e+00 1.9683075542145864e-01 6.9333709366304577e+00 0 1 0
867 1 5.5945876758004811e+00 1.4429269631569597e-01 6.9646747239611857e+00 0 1 0
896 1 1.1116117175154262e+01 2.4428501472311029e-01 5.8424482073414454e+00 0 1 0
1347 1 4.7528700051332464e+00 1.5386562349386526e-01 1.1600365231288711e+01 0 1 0
1376 1 1.1202574506929913e+01 2.1466973047472021e-01 1.1616728803357704e+01 0 1 0
1484 1 7.7074962041768345e+00 3.3518686136464870e+00 4.7597590915662479e-02 0 0 1
26 1 5.5716949314293469e+00 6.5191348594692053e+00 1.1690274514828023e+00 0 0 0
27 1 4.0629772689925376e+00 6.5556849972235112e+00 1.2083342146165685e+00 0 0 0
56 1 1.1701826431864760e+01 6.4599515796609328e+00 1.2340606251224306e+00 0 0 0
121 2 4.7960631960513016e+00 7.8439789590538238e+00 4.3856507449599107e+00 0 0 0
122 1 4.8585785173697635e+00 7.0883588305599643e+00 4.9979094284409422e+00 0 0 0
123 1 4.7616547774881068e+00 8.5954357367463405e+00 5.0031023940375183e+00 0 0 0
124 2 3.1066662311345650e+00 7.8572432877449492e+00 2.1435205817184353e+00 0 0 0
125 1 3.4632954195255343e+00 7.8392859795828995e+00 3.0482552371350433e+00 0 0 0
126 1 2.1340443397197872e+00 7.8331242094402409e+00 2.2025784908648633e+00 0 0 0
127 2 6.0393534922022187e+00 1.0845903488808455e+01 3.6578069912021065e+00 0 0 0
128 1 6.4352315743373687e+00 1.0829344003132880e+01 2.7674848484400507e+00 0 0 0
129 1 6.5059277455659492e+00 1.1578389942156804e+01 4.0994120877181555e+00 0 0 0
130 2 3.2471612426004608e+00 1.0941983232641217e+01 3.6473363025074321e+00 0 0 0
131 1 2.9732305014343141e+00 1.1715890905978609e+01 4.1670538777639869e+00 0 0 0
132 1 4.2227825115159439e+00 1.0933379944175220e+01 3.6517123971207530e+00 0 0 0
133 2 1.4472756936560132e+00 9.2780504315301489e+00 5.0185430605805559e+00 0 0 0
134 1 2.1933752114007952e+00 9.6838037176957421e+00 4.5383787419775281e+00 0 0 0
135 1 1.4686963617602542e+00 9.7146054559718085e+00 5.8888989122293935e+00 0 0 0
136 2 2.8529134885595403e-01 7.8374433132144761e+00 2.2191464186442382e+00 0 0 0
139 2 4.8067829571002489e+00 9.7064718486403248e+00 8.8762682493161427e-01 0 0 0
141 1 4.0931776203674373e+00 9.2296177780123152e+00 1.3507580828365364e+00 0 0 0
142 2 1.3866850087335623e+00 1.1156359227309824e+01 1.4780060147968548e+00 0 0 0
143 1 2.1613466565776376e+00 1.1068004468093248e+01 2.0598784692945538e+00 0 0 0
144 1 1.3972351193496857e+00 1.0393746020346530e+01 8.7027197940246548e-01 0 0 0
145 2 4.7420846948518829e+00 1.2505091315340861e+01 9.9408979701520861e-01 0 0 0
146 1 4.7516554478307729e+00 1.1531355736996785e+01 9.5853723537644753e-01 0 0 0
148 2 1.6569663915522530e+00 6.4724282772510797e+00 5.1570517417088038e+00 0 0 0
149 1 1.6038454150563257e+00 7.4455749078966154e+00 5.1231170795777592e+00 0 0 0
151 2 1.1042309426192865e+01 7.8745238319996611e+00 4.4462015587489656e+00 0 0 0
152 1 1.1785221723014368e+01 7.7876988330460453e+00 3.8230742300491825e+00 0 0 0
153 1 1.0284686247302229e+01 7.9151906317349532e+00 3.8363829856372647e+00 0 0 0
154 2 9.3321770767345011e+00 8.0027835273027570e+00 2.2470332712361007e+00 0 0 0
155 1 8.3567088255553781e+00 7.9643015551373537e+00 2.2373613080423542e+00 0 0 0
156 1 9.6456501276477677e+00 7.2339201592724329e+00 1.7440952058201582e+00 0 0 0
157 2 1.2490005889041377e+01 1.1051380075137098e+01 3.7716183486914989e+00 0 0 0
158 1 1.1523429422195697e+01 1.1011515869683743e+01 3.6682804702454384e+00 0 0 0
160 2 9.6476301492512242e+00 1.0933113428759878e+01 3.5079611103597892e+00 0 0 0
161 1 9.2134081578012115e+00 1.1679524237633228e+01 3.9607095245054227e+00 0 0 0
162 1 9.2824591569842951e+00 1.0166784023032733e+01 3.9813880239829325e+00 0 0 0
163 2 7.9939851947688316e+00 9.1552543428796760e+00 5.0466811585822393e+00 0 0 0
164 1 7.2283725302798132e+00 9.5000231479743213e+00 4.5577200015003596e+00 0 0 0
165 1 7.9738156447750406e+00 9.6551474625200218e+00 5.8849898050069553e+00 0 0 0
166 2 6.5440104450705405e+00 7.8615793174623922e+00 2.2046340922770149e+00 0 0 0
167 1 6.1444837291307852e+00 8.6148379105421782e+00 1.7380919693173296e+00 0 0 0
168 1 6.0615112842391179e+00 7.8487759702044881e+00 3.0530242115731103e+00 0 0 0
169 2 1.1115234765117060e+01 9.7242335918417417e+00 8.6140026301365158e-01 0 0 0
170 1 1.0384025224268232e+01 9.2964031483939653e+00 1.3411409024578191e+00 0 0 0
172 2 7.7100692802046460e+00 1.0857121957840629e+01 1.4030813837644829e+00 0 0 0
173 1 7.7508019630716571e+00 1.1628989001525877e+01 8.1114553269390788e-01 0 0 0
174 1 8.5093987297319931e+00 1.0887671876356254e+01 1.9556351067802569e+00 0 0 0
175 2 1.0912952763148947e+01 1.2504995683636279e+01 7.0957365710776255e-01 0 0 0
177 1 1.0968223904353051e+01 1.1531107695028755e+01 7.3895681459861629e-01 0 0 0
178 2 7.7823258425017023e+00 6.3322291797820061e+00 5.1791454778475634e+00 0 0 0
179 1 7.8307489823011531e+00 7.3058979660342738e+00 5.1591968726018944e+00 0 0 0
197 1 1.2496158164745383e+01 8.5396774213390323e+00 1.8049029535531229e+00 0 0 0
218 1 1.2166842390577284e-01 1.0439631798033840e+01 4.1939693759531975e+00 1 0 0
219 1 1.1632800468945753e-01 1.1183036743322136e+01 2.8586158644806021e+00 1 0 0
270 1 8.9862999365615814e-01 1.2525293812579797e+01 4.7156820994242032e+00 0 0 0
300 1 7.8979543880511720e+00 1.2280361534182765e+01 5.8132617498429662e+00 0 0 0
507 1 4.1216576327283558e+00 6.3637047195079317e+00 6.9971584104727889e+00 0 0 0
536 1 1.1103572003786125e+01 6.5896649778493037e+00 5.7494069265526884e+00 0 0 0
537 1 1.0412856361352182e+01 6.4981289297821734e+00 7.1133628220346914e+00 0 0 0
601 2 4.5976369585975725e+00 7.7317548929325728e+00 1.0266126201505111e+01 0 0 0
602 1 4.6322040573045680e+00 8.4839009277398851e+00 1.0882397173460285e+01 0 0 0
603 1 5.3730717375331052e+00 7.7864007542408604e+00 9.6788583710654361e+00 0 0 0
604 2 2.9392638573774428e+00 7.7076565532368626e+00 7.9643195325176919e+00 0 0 0
605 1 3.3784105574271788e+00 8.4430773747389942e+00 7.4996658563803287e+00 0 0 0
606 1 3.3455135357204679e+00 7.7136010305613922e+00 8.8489235846582108e+00 0 0 0
607 2 6.2198313219323813e+00 1.1110871446670085e+01 9.4299100416522617e+00 0 0 0
608 1 6.5489045412821847e+00 1.0359419784041187e+01 9.9488865640914739e+00 0 0 0
609 1 5.2448583436108205e+00 1.1087974183003235e+01 9.4641281845187510e+00 0 0 0
610 2 3.4146512701394167e+00 1.1075278675638772e+01 9.4580337742937850e+00 0 0 0
611 1 3.0199537966116003e+00 1.1812240505635732e+01 9.9573028054699062e+00 0 0 0
612 1 2.9919872739340350e+00 1.0305382085608203e+01 9.8777709340753326e+00 0 0 0
613 2 1.6046249783735635e+00 9.3268780384244607e+00 1.0792091868391847e+01 0 0 0
615 1 1.6123550890315070e+00 8.3542763467182493e+00 1.0844597403765409e+01 0 0 0
616 2 1.4620739707672525e-01 7.7331641312670589e+00 8.0860418855024196e+00 0 0 0
618 1 1.1222475645953920e+00 7.7423997708659327e+00 8.0528208823804199e+00 0 0 0
619 2 4.6788526702775659e+00 9.4949804699226359e+00 6.6642575214829121e+00 0 0 0
620 1 5.4225933115318430e+00 9.1573940905821161e+00 7.1917347804641611e+00 0 0 0
621 1 4.7120900537683195e+00 1.0467606465557745e+01 6.7268466733755794e+00 0 0 0
622 2 1.4783248619523746e+00 1.0986538262280090e+01 7.2745564350951453e+00 0 0 0
623 1 1.5573055312222932e+00 1.1746638146684024e+01 6.6641145551815999e+00 0 0 0
624 1 2.2579118678161798e+00 1.1031872048263013e+01 7.8507802830381763e+00 0 0 0
625 2 4.8040867217566916e+00 1.2291896557170579e+01 6.7747079198950733e+00 0 0 0
628 2 1.5744868918553345e+00 6.4882575345077873e+00 1.1005085013229175e+01 0 0 0
631 2 1.0938683645241493e+01 7.9352026298560308e+00 1.0327984289933907e+01 0 0 0
632 1 1.1037152328601085e+01 7.1713664532572343e+00 1.0927666736510545e+01 0 0 0
633 1 1.1730715956495082e+01 7.9461395145798264e+00 9.7668123608485988e+00 0 0 0
634 2 9.2718297709765238e+00 7.7842095297218341e+00 8.0720458481020465e+00 0 0 0
635 1 9.6961754705307062e+00 7.7994558415660000e+00 8.9490452974537362e+00 0 0 0
636 1 9.6857749615829416e+00 8.5355517948857216e+00 7.6129771599555314e+00 0 0 0
637 2 1.2483316768042428e+01 1.1084063817744866e+01 9.4788076452716208e+00 0 0 0
640 2 9.6805812880571711e+00 1.0891928985214243e+01 9.3711417113732285e+00 0 0 0
641 1 9.3675792390477852e+00 1.1675052508148060e+01 9.8522935325720180e+00 0 0 0
642 1 1.0653980186873145e+01 1.0939256268187910e+01 9.3807332251682300e+00 0 0 0
643 2 7.8901440525424009e+00 9.3156002084583562e+00 1.0951065427183092e+01 0 0 0
644 1 7.9353671760298798e+00 8.3436723203236323e+00 1.0983242463510184e+01 0 0 0
645 1 8.6384223932141619e+00 9.6018477998072402e+00 1.0402642866079118e+01 0 0 0
646 2 6.4450539675644922e+00 7.8398038430450052e+00 8.1489733557171533e+00 0 0 0
647 1 6.1542612794138076e+00 7.0989852830735360e+00 7.5913181938844536e+00 0 0 0
648 1 7.4187261848179133e+00 7.8430412461211878e+00 8.1287840745060560e+00 0 0 0
649 2 1.1007800845215513e+01 9.5612622785027703e+00 6.7022940856015403e+00 0 0 0
650 1 1.1035270801792675e+01 9.1871637513597779e+00 5.8042989944772199e+00 0 0 0
651 1 1.1047383855502027e+01 1.0531611822831406e+01 6.6224779705533132e+00 0 0 0
652 2 7.9059824023221470e+00 1.1000001434004611e+01 7.1889271497954024e+00 0 0 0
653 1 8.6661283123806268e+00 1.0959732488761652e+01 7.7956562843658634e+00 0 0 0
654 1 7.1575436318683376e+00 1.1040491299959161e+01 7.8087387074069357e+00 0 0 0
655 2 1.1107125126224920e+01 1.2400893092310545e+01 6.6202468297377921e+00 0 0 0
658 2 7.9913165001079562e+00 6.4890192709038841e+00 1.0975639977076586e+01 0 0 0
677 1 1.2484115781262645e+01 7.1611922533529562e+00 7.6272396203379662e+00 0 0 0
678 1 1.2371319772556138e+01 8.6635101398967187e+00 7.6511680996722511e+00 0 0 0
698 1 1.6816756490757684e-01 1.1104734943325857e+01 8.6565576741593500e+00 1 0 0
699 1 2.4556811685859051e-01 1.0352766727532206e+01 9.9832289002106016e+00 1 0 0
749 1 9.4330386252241205e-01 1.2422312818588813e+01 1.0498200497511691e+01 0 0 0
780 1 7.3325227198932854e+00 1.2452151011467924e+01 1.0308068204255873e+01 0 0 0
1709 1 1.5960688670683174e+00 1.2439350946574715e+01 1.1147681731151891e-01 0 0 1
1605 1 7.7594332999416284e+00 9.6338248707154666e+00 3.6047543442985573e-02 0 0 1
58 2 7.7593099404107724e+00 5.0116597456049079e-02 5.1706250433243479e+00 0 0 0
779 1 8.0722489521337728e+00 1.2405722469670991e+01 1.1656601523271702e+01 0 0 0
51 1 1.1104533200206308e+01 2.8350962113890552e+00 2.3354841128509115e+01 0 0 -1
386 1 4.5722044938916184e+00 2.1984729283734925e-01 2.3233915558580343e+01 0 1 -1
416 1 1.0973442933987389e+01 2.8212903043019233e-01 2.3355419174352917e+01 0 1 -1
494 1 1.4994093323152418e+00 3.2932883964210493e+00 1.1806347959144700e+01 0 0 0
524 1 7.8418599965510083e+00 3.4073251673958582e+00 1.1832746514511619e+01 0 0 0
660 1 7.9740537880412576e+00 6.0208015319328307e+00 1.1831979331062904e+01 0 0 0
961 2 4.8005226789055770e+00 1.5075598154246228e+00 1.6075482643147012e+01 0 0 0
962 1 4.0621437788247841e+00 1.5511901590277002e+00 1.5440401653502731e+01 0 0 0
963 1 4.7119598463392034e+00 2.2770495182426957e+00 1.6663113547173605e+01 0 0 0
964 2 3.0588215893502047e+00 1.6285307111617153e+00 1.3872352320187384e+01 0 0 0
965 1 2.0854828803880840e+00 1.5836454426081126e+00 1.3846900538839696e+01 0 0 0
966 1 3.3993963871848920e+00 8.5558166638940902e-01 1.3391954532855104e+01 0 0 0
967 2 6.1742339364164742e+00 4.8137761573116951e+00 1.5353080824875182e+01 0 0 0
968 1 6.5061990759351787e+00 4.0518259581662628e+00 1.5858675115069683e+01 0 0 0
969 1 5.2003491963690518e+00 4.7820202299869976e+00 1.5397715742709305e+01 0 0 0
970 2 3.3730011752522420e+00 4.7574977951849302e+00 1.5465950017495054e+01 0 0 0
971 1 2.9560741965224939e+00 4.0390443495554056e+00 1.5974158903419978e+01 0 0 0
972 1 2.9575085018620531e+00 4.6883246512885375e+00 1.4588370310884129e+01 0 0 0
973 2 1.6649872122203306e+00 3.0200614443880527e+00 1.6907859206482794e+01 0 0 0
974 1 9.1252045569740947e-01 3.3194901494882925e+00 1.6369570522720931e+01 0 0 0
975 1 1.6122498279304953e+00 2.0445034831585072e+00 1.6912155800668589e+01 0 0 0
976 2 2.4341914648066323e-01 1.4931215430381830e+00 1.3865481805185045e+01 0 0 0
979 2 4.7648708744019537e+00 3.3309618067933759e+00 1.2341342229358901e+01 0 0 0
980 1 5.5110340878046493e+00 2.9189082211084334e+00 1.2810846648455442e+01 0 0 0
981 1 3.9994104172569584e+00 2.9516460049387128e+00 1.2808735731373011e+01 0 0 0
982 2 1.6785929810104658e+00 4.5479322997100109e+00 1.3205627264344127e+01 0 0 0
983 1 1.6150483669620055e+00 5.3302778974635938e+00 1.2634217353122102e+01 0 0 0
984 1 9.0761208850511266e-01 4.5690560724913043e+00 1.3805489449858474e+01 0 0 0
985 2 4.7316315652106296e+00 6.1180546677676517e+00 1.2620943560864577e+01 0 0 0
987 1 4.7402099832146112e+00 5.1469860840557446e+00 1.2535193179788168e+01 0 0 0
988 2 1.5657883501570351e+00 2.4353875171855807e-01 1.6912419710714978e+01 0 0 0
991 2 1.0894024310552005e+01 1.6894227428810906e+00 1.6118989415204027e+01 0 0 0
992 1 1.1678760929251300e+01 1.6594023341939028e+00 1.5546431977145586e+01 0 0 0
993 1 1.0950902693672333e+01 9.4558806020227038e-01 1.6744541431768692e+01 0 0 0
994 2 9.3287061699960301e+00 1.5342195406745063e+00 1.3732513202222748e+01 0 0 0
995 1 9.6262108686038825e+00 1.5783086916574669e+00 1.4655513608894651e+01 0 0 0
996 1 8.3531953497681357e+00 1.5434375346015492e+00 1.3748172741715047e+01 0 0 0
997 2 1.2469580383366520e+01 4.6565666873075910e+00 1.5373946307495080e+01 0 0 0
1000 2 9.6545627987419333e+00 4.6017356019891835e+00 1.5332283166286519e+01 0 0 0
1001 1 1.0628875552955263e+01 4.6212960587605281e+00 1.5344045693437414e+01 0 0 0
1002 1 9.3451018670252495e+00 5.3838774689396827e+00 1.5818236483425826e+01 0 0 0
1003 2 7.7925668778147044e+00 2.9765448897716773e+00 1.6774938133982246e+01 0 0 0
1004 1 8.5799952638804893e+00 3.2870092138993852e+00 1.6299958003494641e+01 0 0 0
1005 1 7.8442626416986423e+00 2.0021540924132726e+00 1.6785079394392813e+01 0 0 0
1006 2 6.5251613023987964e+00 1.5819599394778783e+00 1.3772726334826743e+01 0 0 0
1007 1 6.1267020104400540e+00 1.5994490263601837e+00 1.4659324980151586e+01 0 0 0
1008 1 6.0605958937288449e+00 8.4793544385567687e-01 1.3327183828752794e+01 0 0 0
1009 2 1.1054016064399724e+01 3.3410583905817162e+00 1.2443593853480060e+01 0 0 0
1010 1 1.0294876792876607e+01 2.8944251498236975e+00 1.2862800647836162e+01 0 0 0
1011 1 1.1797585453117913e+01 2.9811070657867980e+00 1.2961659491859628e+01 0 0 0
1012 2 7.8961315788149777e+00 4.6995161788535933e+00 1.3144729261451193e+01 0 0 0
1013 1 7.1376009102497315e+00 4.7351194673227441e+00 1.3754732041850424e+01 0 0 0
1014 1 8.6416139106137049e+00 4.6488993261615841e+00 1.3769900771254390e+01 0 0 0
1015 2 1.1144043382604389e+01 6.1015194796457566e+00 1.2397186392869434e+01 0 0 0
1016 1 1.1101729287229022e+01 5.1243614486333966e+00 1.2427303149024626e+01 0 0 0
1018 2 7.9806129580965584e+00 1.8606150164529386e-01 1.6731520793803419e+01 0 0 0
1037 1 1.2441726311908180e+01 9.3952919688986336e-01 1.3485584708720168e+01 0 0 0
1058 1 1.5841301062752644e-01 5.3588125505573441e+00 1.5757886144856512e+01 1 0 0
1109 1 2.2187816633284605e+00 6.1164736833994739e+00 1.6273645635830736e+01 0 0 0
1110 1 1.4664806538121293e+00 6.1098923835582930e+00 1.7607061668280171e+01 0 0 0
1140 1 7.2684472369553283e+00 6.1099594397499946e+00 1.6265174994572980e+01 0 0 0
1377 1 1.0401620291432280e+01 2.3778043837854762e-01 1.2919728417371516e+01 0 1 0
1441 2 4.6322960533595614e+00 1.5096252982773903e+00 2.1898211975055005e+01 0 0 0
1442 1 5.4108175133885625e+00 1.5645260092298583e+00 2.1314596812705300e+01 0 0 0
1443 1 4.7138929961045877e+00 2.2523300819825169e+00 2.2523611321843951e+01 0 0 0
1444 2 2.9624946559007768e+00 1.4761503074539686e+00 1.9643282112363202e+01 0 0 0
1445 1 3.3838745661711549e+00 1.5117861961129682e+00 2.0522190543793634e+01 0 0 0
1446 1 3.3641817652223032e+00 2.2133806020980735e+00 1.9150752860657690e+01 0 0 0
1447 2 6.0774555679755586e+00 4.8709262488990976e+00 2.1187439295041514e+01 0 0 0
1448 1 6.4421207095822925e+00 4.1108104944959436e+00 2.1671913413547351e+01 0 0 0
1449 1 6.5259967944272690e+00 4.8254534341083177e+00 2.0322247151830609e+01 0 0 0
1450 2 3.2827108164744367e+00 4.9032057139665417e+00 2.1197108235557369e+01 0 0 0
1451 1 2.9895665096772563e+00 4.1384081654500902e+00 2.1721113795046804e+01 0 0 0
1452 1 4.2585662918534837e+00 4.8905058620659512e+00 2.1202827244889694e+01 0 0 0
1453 2 1.7175647985546301e+00 3.0447397504777443e+00 2.2710342556082157e+01 0 0 0
1454 1 1.7300706099925447e+00 2.0699862412127441e+00 2.2654584303728328e+01 0 0 0
1455 1 9.4158855298672994e-01 3.3463754139568609e+00 2.2212121105287153e+01 0 0 0
1456 2 1.7073227775854219e-01 1.4235309017871551e+00 1.9819002609860927e+01 0 0 0
1457 1 1.1416093017977405e+00 1.4619162742348681e+00 1.9727496187796344e+01 0 0 0
1459 2 4.6350494342045332e+00 3.3281197274463645e+00 1.8238309168720942e+01 0 0 0
1460 1 4.6596457052905560e+00 4.3024890004025540e+00 1.8285063733549684e+01 0 0 0
1461 1 5.4068196190465754e+00 3.0222005338365800e+00 1.8743060771884977e+01 0 0 0
1462 2 1.4674505902293240e+00 4.8768664950524396e+00 1.9020986209869257e+01 0 0 0
1463 1 2.2398011523206094e+00 4.8864531543635135e+00 1.9612716836923319e+01 0 0 0
1464 1 1.5651234989261171e+00 4.1099332582739789e+00 1.8427631089984178e+01 0 0 0
1465 2 4.7695749565314634e+00 6.1577638723848471e+00 1.8377634065875622e+01 0 0 0
1468 2 1.7651789082837290e+00 2.6574634497552341e-01 2.2543453182352064e+01 0 0 0
1471 2 1.1027514732244814e+01 1.5388460687235459e+00 2.2041161550197874e+01 0 0 0
1472 1 1.0268411886362376e+01 1.5950437594000142e+00 2.1436100933445132e+01 0 0 0
1473 1 1.1775043944295097e+01 1.5352493583764260e+00 2.1414932363395479e+01 0 0 0
1474 2 9.2593140926482462e+00 1.6394379003309179e+00 1.9831903196254007e+01 0 0 0
1475 1 9.7240470885092556e+00 2.3785081845760261e+00 1.9392201293060204e+01 0 0 0
1476 1 9.6205644385811731e+00 8.7324992846676042e-01 1.9354152594647800e+01 0 0 0
1477 2 1.2364782276000662e+01 4.6228972561404529e+00 2.1140541182501412e+01 0 0 0
1479 1 1.1388739221762901e+01 4.6263065968515935e+00 2.1153622981998765e+01 0 0 0
1480 2 9.5634277832680983e+00 4.6333381462097956e+00 2.1194245025376052e+01 0 0 0
1481 1 9.1750582359745874e+00 5.3674430720219490e+00 2.1704801021833944e+01 0 0 0
1482 1 9.1055735902755988e+00 4.6688026683141937e+00 2.0332980242608297e+01 0 0 0
1483 2 7.7218797812038531e+00 2.9140555095374263e+00 2.2551872002219248e+01 0 0 0
1485 1 8.4617170060092821e+00 3.3147474779564452e+00 2.2062613097303789e+01 0 0 0
1486 2 6.4797092519607240e+00 1.7113104163739226e+00 1.9778165949007075e+01 0 0 0
1487 1 7.4549861119612268e+00 1.6868442792989846e+00 1.9796408267531529e+01 0 0 0
1488 1 6.1992469781744122e+00 9.3954158904912810e-01 1.9262027787701385e+01 0 0 0
1489 2 1.1014645850435523e+01 3.3173346373741399e+00 1.8494140637868217e+01 0 0 0
1490 1 1.0961106962042448e+01 4.2904113433917015e+00 1.8437663283197896e+01 0 0 0
1491 1 1.0980811490843799e+01 2.9890120098198345e+00 1.7580403541850693e+01 0 0 0
1492 2 7.8187110454079578e+00 4.7214385784353308e+00 1.8985573604320816e+01 0 0 0
1493 1 7.8086411721147950e+00 3.9547140032228465e+00 1.8384460793415265e+01 0 0 0
1494 1 7.9007976005186977e+00 5.4581908645225399e+00 1.8353573656983368e+01 0 0 0
1495 2 1.0902307068911462e+01 6.1125161647616624e+00 1.8360733206251318e+01 0 0 0
1498 2 8.0312928415550431e+00 1.0149107545854046e-01 2.2657732406241720e+01 0 0 0
1500 1 7.9152845722601146e+00 1.0676702757648457e+00 2.2613260319953586e+01 0 0 0
1517 1 1.2350535008598678e+01 2.3020106778523739e+00 1.9379912559750991e+01 0 0 0
1538 1 1.4869514960198088e-01 4.7264593877979539e+00 2.0418207294436915e+01 1 0 0
1539 1 1.5757671142429755e-01 5.3903538237750794e+00 2.1797602161710927e+01 1 0 0
1590 1 2.2285292934894985e+00 6.1376069237173461e+00 2.2178248292255201e+01 0 0 0
1620 1 7.2078309985140665e+00 6.1302055298485056e+00 2.2166681593309317e+01 0 0 0
1826 1 4.8493519969616710e+00 1.9906379350816936e-01 1.7434298533921208e+01 0 1 0
1827 1 4.1267394209553592e+00 1.6750744298310710e-01 1.8785784895346033e+01 0 1 0
1857 1 1.1693626262186298e+01 2.5618709744156370e-01 1.8843467008762516e+01 0 1 0
1740 1 7.1374851637426282e+00 1.2411268264879801e+01 2.2152335318927189e+01 0 0 0
1739 1 8.6493354625797938e+00 1.2324300933516962e+01 2.2219087592075748e+01 0 0 0
1710 1 9.6854289728694676e-01 1.2425101589542537e+01 2.2124241683261772e+01 0 0 0
1659 1 2.9659310217321588e-01 1.1022506036815146e+01 2.0462323800528054e+01 1 0 0
1017 1 1.0385612373530599e+01 6.4166950666530997e+00 1.2914485370255816e+01 0 0 0
1081 2 4.8084557611107046e+00 7.9428551858520295e+00 1.6176896760506466e+01 0 0 0