LAMMPS data file via write_data, version 5 Jun 2019, timestep = 0

972 atoms
2 atom types

0.0000000000000000e+00 2.0154525418028399e+01 xlo xhi
0.0000000000000000e+00 2.0164837216497801e+01 ylo yhi
0.0000000000000000e+00 2.1834600093589600e+01 zlo zhi
4.0098154112924597e-02 1.2944180662033200e-01 6.0927349615588197e-02 xy xz yz

Masses

1 1.008
2 15.9994

Atoms # atomic

1 2 2.8057223350652731e+00 2.6702374108099978e+00 2.6402611557507688e-01 0 0 0
2 2 4.1428257594714744e+00 1.3319794766659510e+00 3.6974985557172069e+00 0 0 0
4 2 1.1554981393826684e+00 4.1227049929252706e+00 3.7757551099195692e+00 0 0 0
5 2 4.6838485088337976e+00 5.8034290642694808e+00 1.9488376082665322e+00 0 0 0
6 2 3.9688924457730423e+00 4.0398790477538151e+00 3.9750326541021161e+00 0 0 0
7 2 6.3082727133828564e-01 6.1334883016253388e+00 1.9625862971395480e+00 0 0 0
11 2 7.2172797080502493e-01 2.0344799297765950e+00 1.9906674845625629e+00 0 0 0
237 2 9.2925217229939552e+00 5.4979390800761276e+00 2.4464942336445158e-01 0 0 1
16 2 8.0169541072324400e+00 3.9854213301052388e+00 4.0008306164520899e+00 0 0 0
19 2 7.4279796327058838e+00 6.0122868121173063e+00 2.2095245735432871e+00 0 0 0
20 2 8.9426009592112816e+00 8.5964781349238806e-01 5.3196589668617591e+00 0 0 0
23 2 7.4947630881704601e+00 2.0891050930356996e+00 1.9973220171140929e+00 0 0 0
37 2 2.8155549389007994e+00 9.5371856559684876e+00 2.8983068410777518e-01 0 0 0
38 2 4.1865148282879279e+00 7.8829601649635759e+00 3.6305629455652699e+00 0 0 0
436 1 7.9199413335786657e+00 7.6091814200907093e+00 5.3524010937380293e+00 0 0 0
47 2 8.3652436175355527e-01 8.8802496451929862e+00 2.1654464530198250e+00 0 0 0
48 2 5.5860270920583224e+00 9.3795356907507461e+00 1.3811480063283174e-01 0 0 0
417 1 6.8437083608014510e-02 9.0570371477015161e+00 1.5879934230916499e+00 0 0 0
59 2 7.5540015153984807e+00 8.8179805514062828e+00 1.9847340063652581e+00 0 0 0
327 1 4.2252534766697751e+00 6.9802202769446986e-01 2.9594346512898122e+00 0 0 0
328 1 4.9069503676029118e+00 1.1061035416307226e+00 4.2659857398425975e+00 0 0 0
329 1 5.2453678477909582e+00 4.4278570235941723e+00 5.1479506440241867e+00 0 0 0
330 1 6.7828405096674187e+00 4.3731228929966441e+00 5.2397496179435015e+00 0 0 0
331 1 6.1247179795483486e-01 4.2249372452086362e+00 4.5790032152387230e+00 0 0 0
332 1 2.0931202791250900e+00 4.1271768648824327e+00 4.0336733781199223e+00 0 0 0
333 1 4.4419618165069537e+00 6.6219553955970012e+00 2.4267910074673114e+00 0 0 0
334 1 4.0325572879851137e+00 5.7123900890299115e+00 1.2278292482043791e+00 0 0 0
335 1 4.0780076594658583e+00 3.1047286857750938e+00 3.7136242325981601e+00 0 0 0
336 1 4.2161418989694424e+00 4.5833778248001158e+00 3.2018822637118998e+00 0 0 0
338 1 8.1770070407575424e-01 5.4912755345022184e+00 2.6759111504057769e+00 0 0 0
340 1 2.7488855089664064e+00 1.0287060730822410e+00 4.7795398063906109e+00 0 0 0
345 1 1.4944282502101800e+00 2.2463739612103666e+00 1.4295661045398589e+00 0 0 0
346 1 8.0430047550167105e-01 2.6655339433465928e+00 2.7290117056272849e+00 0 0 0
347 1 4.6686410212253087e+00 2.5490258945794158e+00 3.0853471176816105e-01 0 0 0
348 1 6.1457053589009076e+00 2.4375561343422785e+00 8.5307528656550291e-01 0 0 0
349 1 8.8484689250284756e+00 2.4929839513232350e+00 8.7140957676909192e-01 0 0 0
773 1 1.8415010070246634e+00 5.6514573712672203e+00 7.4998466536051756e-01 0 0 0
355 1 7.8494452926144271e+00 4.7330998189431757e+00 3.3899564488495764e+00 0 0 0
356 1 8.9817376291757984e+00 4.0031271647705244e+00 4.1379896201568869e+00 0 0 0
361 1 7.9910920423409255e+00 5.8089379206263425e+00 1.4373581481257132e+00 0 0 0
362 1 6.4990665590246630e+00 5.8704701434985855e+00 1.9494255858868035e+00 0 0 0
364 1 7.9721511510173881e+00 8.3709831777509081e-01 5.2130583226302303e+00 0 0 0
369 1 7.6382847524857933e+00 2.6008354165245224e+00 2.8124964782681352e+00 0 0 0
370 1 7.4878747652439728e+00 1.1403680363246607e+00 2.2225441222799929e+00 0 0 0
398 1 2.2131807866036963e+00 9.3116190413046489e+00 1.0224836869844660e+00 0 0 0
399 1 4.1846100804772091e+00 8.8412544170010392e+00 3.4413140535400615e+00 0 0 0
400 1 3.3684141487616426e+00 7.7513736038197445e+00 4.1489044998614588e+00 0 0 0
415 1 5.5123056277709956e+00 7.5772597221999671e+00 4.8364414966932969e+00 0 0 0
418 1 8.2855179530138290e-01 7.9084567869264655e+00 2.2630840578867431e+00 0 0 0
419 1 4.6551044539284687e+00 9.4014237754945107e+00 4.1978346763349167e-01 0 0 0
420 1 6.1491528766968484e+00 9.2361730358960763e+00 9.2039996801354740e-01 0 0 0
421 1 8.8921107033286653e+00 9.1387418796975517e+00 8.3674691445125793e-01 0 0 0
44 2 2.0090354533760588e+00 7.6218340039460424e+00 5.3646782054485014e+00 0 0 0
441 1 7.5287155548016269e+00 7.8854666069892989e+00 2.2597973584001285e+00 0 0 0
442 1 7.6912343846739821e+00 9.3714191708296131e+00 2.7751283456886684e+00 0 0 0
482 1 7.2665316608701391e-01 2.4103999830785688e-01 2.0824603946501679e+00 0 0 0
13 2 9.4661860877429209e+00 2.7570297283510343e+00 1.6334824823487237e-01 0 0 0
225 2 2.5925603711053045e+00 5.4243094019364033e+00 1.6459792796248435e-01 0 0 1
56 2 8.8826410201599337e+00 7.6249060105414470e+00 5.5096864341328162e+00 0 0 0
46 2 6.1269510742772804e+00 7.4012743529838181e+00 5.5755418372831338e+00 0 0 0
416 1 6.0359516862300300e+00 6.4428261643248357e+00 5.7414778190922862e+00 0 0 0
8 2 2.1147895850158340e+00 9.4292626096191190e-01 5.5181809011837375e+00 0 0 0
10 2 6.1814014045582155e+00 6.8343759640092649e-01 5.4256158851322631e+00 0 0 0
391 1 3.1272703373875638e-01 8.2473905520639645e-01 5.4762984172351716e+00 0 0 0
12 2 5.6066456374951077e+00 2.5582378720430832e+00 4.9483502353037952e-02 0 0 0
3 2 5.9903018499967455e+00 4.6274843424818375e+00 5.7545726917325037e+00 0 0 0
547 1 1.1919446033539209e+00 4.9627323980902682e+00 1.0550306865965904e+01 0 0 0
9 2 2.5124712796406619e+00 5.6425263898633320e+00 7.2222490007722548e+00 0 0 0
339 1 2.3768566872340973e+00 1.3454921091071398e-01 6.0030840863539714e+00 0 0 0
366 1 1.0097582148667138e+01 5.7133771471761685e+00 7.7594067164446399e+00 0 0 0
21 2 9.3037114142595740e+00 5.5358253311619583e+00 7.2143544929780701e+00 0 0 0
614 1 2.1626529719193024e+00 9.3674597500928254e+00 7.9668280123615673e+00 0 0 0
613 1 3.6428583574036639e+00 9.4483030372495893e+00 7.4335880337750169e+00 0 0 0
109 2 2.7257508596636106e+00 2.8693427515427845e+00 7.3928021649569295e+00 0 0 0
635 1 6.0628446790731401e+00 9.2760833562245359e+00 8.1602939819967659e+00 0 0 0
113 2 4.5686836207183017e+00 6.0827797939304435e+00 8.9534209417232340e+00 0 0 0
634 1 8.8237488090992244e-01 8.0288106577376137e+00 9.4034194617823879e+00 0 0 0
115 2 7.4795275966162200e-01 6.2094201191951948e+00 9.3095411567250324e+00 0 0 0
119 2 8.7583673283258845e-01 2.1929768200324853e+00 9.3062981696185840e+00 0 0 0
120 2 5.4710273864627457e+00 2.4858428013643978e+00 7.4130747926074347e+00 0 0 0
121 2 9.5034675806568281e+00 2.7626122001555120e+00 7.2699039023146810e+00 0 0 0
127 2 7.3322452209355147e+00 6.1928181344953179e+00 9.0385972972650741e+00 0 0 0
131 2 7.6093469427042670e+00 2.1279111532206145e+00 9.1524794024279963e+00 0 0 0
145 2 2.7084326840966555e+00 9.5948919087705260e+00 7.1892525059620418e+00 0 0 0
657 1 7.4944778901356841e+00 7.9759110170786673e+00 9.3471687156026686e+00 0 0 0
155 2 9.0082672504461425e-01 8.9910297038143785e+00 9.2398522717692604e+00 0 0 0
156 2 5.4348796185972557e+00 9.3464347087818513e+00 7.4179345652277249e+00 0 0 0
157 2 9.4575426845431139e+00 9.5403733210368582e+00 7.4203061145609803e+00 0 0 0
167 2 7.5087074756954957e+00 8.9462974985750563e+00 9.2411764010586150e+00 0 0 0
586 1 7.6278941838384942e+00 1.1615013492086457e+00 9.2826057669545854e+00 0 0 0
341 1 2.5478752840564662e+00 4.6757837857560114e+00 7.0982899603033651e+00 0 0 0
342 1 3.3312590392650039e+00 5.8373853260103514e+00 7.7238549213092105e+00 0 0 0
344 1 5.9273106553147930e+00 1.2190575870011022e+00 6.2038712262159486e+00 0 0 0
363 1 9.1335641295641370e+00 6.2218516330597912e-02 5.8527356658187992e+00 0 0 0
365 1 9.3278734292982470e+00 4.5743030117955579e+00 7.0574056406881382e+00 0 0 0
697 1 8.7610953659217572e-01 4.0789133960088841e-01 9.3363410593762950e+00 0 0 0
658 1 8.2542657961554617e+00 9.1167758219348158e+00 8.6274782744095670e+00 0 0 0
585 1 8.3365394162795621e+00 2.3087183301967924e+00 8.5208247529387968e+00 0 0 0
411 1 2.2301463712374576e+00 8.3775143769181373e+00 5.9461196011214907e+00 0 0 0
412 1 2.2288458409317751e+00 6.8427724986277703e+00 5.9154265965924022e+00 0 0 0
463 1 1.5433123585903941e-01 7.5049163308044546e+00 5.5278602597311899e+00 0 0 0
637 1 9.2660646133798306e+00 8.9341495493211607e+00 6.6773161014303941e+00 0 0 0
435 1 9.0502870860670850e+00 6.8076361341838334e+00 6.0227680089187432e+00 0 0 0
404 1 1.1203860792407756e+00 1.0083414697174867e+01 3.4539583455224689e+00 0 0 0
541 1 2.5020599708769478e+00 2.2515832666710032e+00 6.6680718188594694e+00 0 0 0
542 1 3.6746845192137165e+00 2.7093243022080906e+00 7.5545057444577601e+00 0 0 0
616 1 4.2401052592918571e+00 7.4721459152498486e+00 1.0109305976467038e+01 0 0 0
636 1 5.6714809570488516e+00 8.5892266196646023e+00 6.8446633690406857e+00 0 0 0
549 1 4.4305422354898427e+00 5.3123417580747434e+00 9.5412588841166066e+00 0 0 0
550 1 5.5325324290489970e+00 6.0933712250679806e+00 8.7992932275053306e+00 0 0 0
553 1 1.2751161734128305e+00 5.9787969712137823e+00 8.5203760553756176e+00 0 0 0
561 1 1.0064551041948548e+00 2.7969795809546953e+00 1.0060117773111974e+01 0 0 0
562 1 1.5885103058944909e+00 2.4388656360332792e+00 8.6813107730488390e+00 0 0 0
563 1 5.7203409469583262e+00 3.2989859501398704e+00 6.9300275530864939e+00 0 0 0
564 1 6.1224021010676468e+00 2.4067944000539860e+00 8.1348012407166141e+00 0 0 0
566 1 9.3025512663322392e+00 2.1764840723132362e+00 6.5151472289845325e+00 0 0 0
615 1 4.1592403778262241e+00 8.9629419226090459e+00 1.0646874765154717e+01 0 0 0
577 1 7.9415483457464813e+00 5.9476991457012192e+00 8.3159596978271111e+00 0 0 0
578 1 7.5786038176342823e+00 5.5681404350365389e+00 9.7476718618914262e+00 0 0 0
571 1 7.8367650758740979e+00 3.4042315761787703e+00 1.0390900617399224e+01 0 0 0
543 1 4.3309321710989455e+00 2.1970143151119603e+00 1.0604017160200474e+01 0 0 0
146 2 4.1396327705087108e+00 8.0243969739723067e+00 1.0905705520885467e+01 0 0 0
114 2 4.1397341880793537e+00 3.9993219119583148e+00 1.0736287689072363e+01 0 0 0
110 2 4.3559649980886190e+00 1.2344693407451666e+00 1.0763626705585132e+01 0 0 0
124 2 8.0727509467445326e+00 4.2210702896133068e+00 1.0871321590758095e+01 0 0 0
326 1 2.6766746236787924e+00 3.6136730082083441e+00 5.2482826037461343e-02 0 0 1
49 2 9.5227394801738701e+00 9.3578757140528186e+00 1.2475068726076770e-01 0 0 0
111 2 6.0138210426973533e+00 4.6163425371285838e+00 1.2637296039578784e+01 0 0 0
112 2 1.4231276732042188e+00 4.2172591809512765e+00 1.1139701096550485e+01 0 0 0
116 2 2.3526325386827391e+00 8.7496640419001281e-01 1.2632534541021059e+01 0 0 0
117 2 2.5838461288251917e+00 5.6278458962588385e+00 1.4651477779922301e+01 0 0 0
118 2 6.3161600828224254e+00 6.4018998460372722e-01 1.2653743431777077e+01 0 0 0
850 1 1.3463944201423791e-01 9.2154749468902306e+00 1.6083523072233351e+01 0 0 0
128 2 9.0868214539714049e+00 6.8044242794420651e-01 1.2575730039181476e+01 0 0 0
129 2 9.2672647226559288e+00 5.4916245092643221e+00 1.4423787126744454e+01 0 0 0
152 2 2.1694652343002852e+00 7.6330895952102935e+00 1.2799399036644806e+01 0 0 0
154 2 6.1469476697396610e+00 7.3519831259106780e+00 1.2705004362685822e+01 0 0 0
164 2 8.9038744295049419e+00 7.5102517830607445e+00 1.2610267750540075e+01 0 0 0
217 2 2.8997378937798763e+00 2.8805384137236585e+00 1.4515775906552228e+01 0 0 0
228 2 5.6433954022385873e+00 2.6040979876807762e+00 1.4492655566251381e+01 0 0 0
229 2 9.5026645078458536e+00 2.7131939801715084e+00 1.4398314370431219e+01 0 0 0
581 1 1.0052855594496759e+01 5.6716257852145029e+00 1.4980185497271671e+01 0 0 0
556 1 2.5031207864160723e+00 9.1839244650771673e-02 1.3198533843942819e+01 0 0 0
221 2 4.5879548034610256e+00 6.0879141525341955e+00 1.6456152594366628e+01 0 0 0
253 2 2.8284538424247532e+00 9.5716624367820327e+00 1.4667940066849820e+01 0 0 0
264 2 5.5598220877000877e+00 9.3509795718915747e+00 1.4484158146733646e+01 0 0 0
265 2 9.5108372558548844e+00 9.4662428521904562e+00 1.4505947336947145e+01 0 0 0
851 1 6.1289672162225592e+00 9.2336219481544042e+00 1.5267570571391110e+01 0 0 0
544 1 3.5740918506679846e+00 1.0756100124523169e+00 1.1330142824785673e+01 0 0 0
545 1 6.0401167386900445e+00 5.5561735151640743e+00 1.2894462191037288e+01 0 0 0
546 1 5.9466219813272074e+00 4.0547795316201443e+00 1.3430444019766281e+01 0 0 0
548 1 7.8568399708903147e-01 4.2957768864277437e+00 1.1875339075993734e+01 0 0 0
551 1 4.7361041475965520e+00 4.2371932765681466e+00 1.1474479558964974e+01 0 0 0
235 2 7.3302738660233189e+00 6.0933301600224565e+00 1.6312410963802019e+01 0 0 0
555 1 1.3905526425296910e+00 8.5715122370720453e-01 1.2470210682944105e+01 0 0 0
854 1 9.2865621439878581e+00 8.8556974588518855e+00 1.3778749860740955e+01 0 0 0
557 1 2.6201548634775409e+00 4.6946147270485348e+00 1.4376566776154226e+01 0 0 0
558 1 2.4816676220132572e+00 6.1930932004778088e+00 1.3864332551497521e+01 0 0 0
560 1 5.7099994957679350e+00 8.6131714721064778e-01 1.1921551946966016e+01 0 0 0
572 1 7.4317153896933048e+00 4.2977389647432087e+00 1.1603073831266972e+01 0 0 0
853 1 8.8701044453629194e+00 9.2308326613076606e+00 1.5205164367896408e+01 0 0 0
579 1 8.1264193855900579e+00 6.9237803813865517e-01 1.2407275207325764e+01 0 0 0
580 1 9.2214458089725042e+00 1.4324891402387427e+00 1.3188611075401827e+01 0 0 0
582 1 9.3063916154687014e+00 4.5293368533197427e+00 1.4268150777183912e+01 0 0 0
627 1 2.7683138571501131e+00 7.7262494325161093e+00 1.2035746091415842e+01 0 0 0
628 1 2.4025507596959983e+00 8.3813234674480910e+00 1.3384494843920326e+01 0 0 0
631 1 5.9302388304475100e+00 7.9949740382931047e+00 1.3408889516313502e+01 0 0 0
632 1 5.5210854217109810e+00 7.5911836583650922e+00 1.1995252621341576e+01 0 0 0
651 1 7.9381696080293205e+00 7.4981106735017757e+00 1.2468653913170549e+01 0 0 0
652 1 9.0678555660795936e+00 6.7167777675695675e+00 1.3158450806885947e+01 0 0 0
679 1 4.0087796708539308e-01 7.5014417619784570e+00 1.2746071563004403e+01 0 0 0
757 1 3.8619921699822894e+00 2.7535886671245087e+00 1.4635793189756610e+01 0 0 0
758 1 2.6678181342958944e+00 2.2583904827332213e+00 1.3800904140417257e+01 0 0 0
765 1 5.5204955667945441e+00 6.0621589505130196e+00 1.6175839734357265e+01 0 0 0
766 1 4.0052352844826702e+00 5.9658484817920039e+00 1.5684239452186498e+01 0 0 0
770 1 1.3168030011800471e+00 6.0364289755541565e+00 1.5832249144267555e+01 0 0 0
777 1 1.7560091081578044e+00 2.4098339241271467e+00 1.5872270788937247e+01 0 0 0
779 1 5.8670569256111609e+00 1.8587507052495194e+00 1.3900098807198150e+01 0 0 0
780 1 6.2609495190723825e+00 2.4920898766166331e+00 1.5240254275568205e+01 0 0 0
782 1 8.9380965217559982e+00 2.4670538543157967e+00 1.5158487409913745e+01 0 0 0
794 1 7.9391341486034781e+00 5.8647489032390610e+00 1.5584953754247953e+01 0 0 0
852 1 4.6272671772263863e+00 9.3776881810644319e+00 1.4764327274254498e+01 0 0 0
829 1 2.2320986217619234e+00 9.3711726856399533e+00 1.5414706398367924e+01 0 0 0
218 2 4.2391190564860244e+00 1.3314621817365866e+00 1.8111603620352174e+01 0 0 0
219 2 6.1224951382414670e+00 4.6386009483844184e+00 2.0066864795910568e+01 0 0 0
220 2 1.3492594740281334e+00 4.1948291022844613e+00 1.8346617224715438e+01 0 0 0
640 1 1.0140840100652255e+01 7.8094315789149684e+00 1.1366047585686891e+01 0 0 0
222 2 4.0905031454006142e+00 4.0727999301832574e+00 1.8261505389621334e+01 0 0 0
223 2 7.5647571489168985e-01 6.2791083230824052e+00 1.6595052256498764e+01 0 0 0
224 2 2.3098841684542535e+00 9.3219709314306864e-01 2.0083273466569352e+01 0 0 0
910 1 4.4345208727630174e+00 7.5240005770099011e-02 1.6878676582220219e+01 0 1 0
226 2 6.3193958492660993e+00 8.2748850770712956e-01 1.9865086507804204e+01 0 0 0
227 2 1.0200813007041634e+00 2.1691271789201823e+00 1.6467895121991262e+01 0 0 0
232 2 8.0020769860276584e+00 4.1182960457392754e+00 1.8143364696851119e+01 0 0 0
236 2 9.1158717628796779e+00 8.1275716118155261e-01 2.0163583081363008e+01 0 0 0
254 2 4.1989899315539736e+00 7.9861605271112284e+00 1.8379436841215060e+01 0 0 0
260 2 2.2699346000300826e+00 7.6178333532757909e+00 2.0297341534737978e+01 0 0 0
262 2 6.2555784965197923e+00 7.4058247586828498e+00 2.0139534910372234e+01 0 0 0
263 2 9.2624779476655450e-01 9.0405868185086238e+00 1.6627562947001358e+01 0 0 0
272 2 9.0134126736163473e+00 7.4384767058162069e+00 2.0107061928622755e+01 0 0 0
325 1 2.6857224520036089e+00 2.2082098273916202e+00 2.1312966810789106e+01 0 0 0
867 1 9.5395065838757258e+00 7.5611000043666765e+00 1.9297231843382402e+01 0 0 0
350 1 9.4138779802721242e+00 2.1715552720270774e+00 2.1288782488242578e+01 0 0 0
397 1 2.6918917818367367e+00 8.9671695355762786e+00 2.1422761080567579e+01 0 0 0
422 1 9.4219337132908603e+00 8.7895176666815811e+00 2.1250123109545495e+01 0 0 0
873 1 7.6491719172951269e+00 9.3825629964400914e+00 1.7107938961706854e+01 0 0 0
868 1 8.0640656637653354e+00 7.4683016217229472e+00 1.9885919582531603e+01 0 0 0
759 1 4.2224939268631294e+00 2.2998350648231503e+00 1.7982777642963161e+01 0 0 0
760 1 5.0126146435270611e+00 1.1803235614143204e+00 1.8692282164432505e+01 0 0 0
761 1 6.1272523069551736e+00 5.5755303227430355e+00 2.0330470301839568e+01 0 0 0
762 1 6.0181043535724612e+00 4.0741940603449933e+00 2.0854721242803379e+01 0 0 0
763 1 1.1735592485687629e+00 4.9659529312543498e+00 1.7771117196026641e+01 0 0 0
764 1 2.3174790112636230e+00 4.2007194422189151e+00 1.8482173355669911e+01 0 0 0
767 1 4.2938970222287365e+00 4.7220378012083515e+00 1.7560115046637709e+01 0 0 0
768 1 4.7320192157683181e+00 4.2931131513195213e+00 1.8963417652214591e+01 0 0 0
771 1 1.3829949524764809e+00 9.0522014014584429e-01 1.9788788905420549e+01 0 0 0
772 1 2.8688170284855063e+00 1.0424471272195699e+00 1.9292061014921160e+01 0 0 0
774 1 2.6404541057156439e+00 6.1402367441511299e+00 2.1280443042051818e+01 0 0 0
775 1 6.0971643083704610e+00 1.3799250352185881e+00 2.0640375136280323e+01 0 0 0
778 1 1.0897269457047478e+00 2.7985372326730271e+00 1.7210622888258346e+01 0 0 0
787 1 8.9487253815467618e+00 4.1252347750328315e+00 1.8372225204847059e+01 0 0 0
788 1 7.4680800276756418e+00 4.2550368598283566e+00 1.8947674535504184e+01 0 0 0
793 1 7.5693021088284889e+00 5.4553762211864445e+00 1.7011677227480966e+01 0 0 0
795 1 9.6967226071787103e+00 9.2542224756548730e-01 1.9386128665354700e+01 0 0 0
796 1 8.1914829366770316e+00 8.4656175116791554e-01 1.9865120770682086e+01 0 0 0
801 1 7.5755315101099070e+00 1.2009035991676433e+00 1.6623203118503522e+01 0 0 0
798 1 9.3244773103871434e+00 6.0967414556229809e+00 2.1272475048033375e+01 0 0 0
802 1 7.7105163027423709e+00 2.7099077077466314e+00 1.7100085069308825e+01 0 0 0
831 1 4.2319773569866648e+00 8.9194286460661019e+00 1.8108291557909563e+01 0 0 0
832 1 4.2830387514278527e+00 7.4302108817496491e+00 1.7581950504941918e+01 0 0 0
843 1 1.3285397337177800e+00 7.5806225150418207e+00 2.0051405415252663e+01 0 0 0
844 1 2.8097918933359467e+00 7.7091239596578349e+00 1.9490220417757481e+01 0 0 0
847 1 6.0548884487600949e+00 8.0510189880594893e+00 2.0842535174991561e+01 0 0 0
848 1 5.5906558334108771e+00 7.6141747456840072e+00 1.9455685948048348e+01 0 0 0
849 1 9.0689138907813771e-01 8.0706155480278987e+00 1.6750301835859055e+01 0 0 0
874 1 7.5012098839594152e+00 7.8966859149997051e+00 1.6540799677847051e+01 0 0 0
914 1 8.6188322908472981e-01 3.6976349171506329e-01 1.6566508966424305e+01 0 0 0
275 2 7.5193556680821727e+00 8.8422219732110339e+00 1.6307606014164264e+01 0 0 0
239 2 7.6446615013410728e+00 2.1239363654030461e+00 1.6321726660991196e+01 0 0 0
797 1 9.4480117743327732e+00 4.6154235869067328e+00 2.1834261138984516e+01 0 0 0
552 1 3.2231846258800587e+00 4.1126758382854689e+00 1.1050372169144270e+01 0 0 0
576 1 9.8571159678814144e+00 4.1171981320562976e+00 1.1051891357031288e+01 0 0 0
40 2 1.3495375975732835e+00 1.0878000606978771e+01 3.9778156668457108e+00 0 0 0
41 2 4.6874581821795420e+00 1.2670634941726872e+01 1.6903794034975510e+00 0 0 0
42 2 4.1040564291535926e+00 1.0645638473819536e+01 3.4902508446643363e+00 0 0 0
43 2 6.8857678505329833e-01 1.2799104376796537e+01 2.0654388075880221e+00 0 0 0
52 2 8.0712871791327281e+00 1.0791663772383103e+01 3.8579061314821419e+00 0 0 0
55 2 7.4825515035667607e+00 1.2800135883047460e+01 2.0224280163587229e+00 0 0 0
705 1 8.3898374307050883e-02 1.5830003145775809e+01 8.6880278904011394e+00 0 0 0
74 2 4.2347679699485967e+00 1.4640027335710021e+01 3.5836466184176836e+00 0 0 0
76 2 1.2820927542467473e+00 1.7521970030919920e+01 3.7963924347625819e+00 0 0 0
77 2 4.6337590512355655e+00 1.9409659919930771e+01 1.9722753602830765e+00 0 0 0
78 2 4.0413167202707099e+00 1.7406625747284505e+01 3.7923414107600499e+00 0 0 0
79 2 6.8597929484912012e-01 1.9446521882294316e+01 1.9176572888304930e+00 0 0 0
80 2 2.0743890092322737e+00 1.4371274837091756e+01 5.3729494626813183e+00 0 0 0
83 2 8.5278569631317913e-01 1.5602873866984488e+01 1.8271324500454025e+00 0 0 0
39 2 5.8882264393756989e+00 1.1265291316863255e+01 5.4804522889343446e+00 0 0 0
846 1 3.3284751534529295e+00 1.2481000718159846e+01 4.9705184002275088e-01 0 0 0
88 2 7.9636030656086891e+00 1.7528168582595409e+01 3.8957130519449601e+00 0 0 0
91 2 7.3917143687720994e+00 1.9509400134759765e+01 2.0121565150009535e+00 0 0 0
297 2 2.7005809583295215e+00 1.9016010015102619e+01 6.0300878788426299e-02 0 0 1
95 2 7.6020640346380688e+00 1.5583902656543353e+01 1.9827847897805178e+00 0 0 0
403 1 1.1392171868414016e+00 1.1614343835435264e+01 3.3675985909606210e+00 0 0 0
405 1 4.4902242665949474e+00 1.3449884345804209e+01 2.2484211083001688e+00 0 0 0
406 1 4.4806951730101847e+00 1.1913847964911712e+01 2.2763350396223658e+00 0 0 0
407 1 3.1819655510348386e+00 1.0784298972555295e+01 3.7769210400233182e+00 0 0 0
408 1 4.6701518120754040e+00 1.0881889462152273e+01 4.2531466808269665e+00 0 0 0
409 1 1.2241519138570480e+00 1.2576597281572615e+01 1.2814550155381152e+00 0 0 0
427 1 7.4074809114185776e+00 1.0903009327933695e+01 4.5634932482300439e+00 0 0 0
428 1 7.8791204798633965e+00 1.1538578570949724e+01 3.2568335870521494e+00 0 0 0
431 1 9.8464610663390495e+00 1.0736763753914865e+01 4.0089039339911627e+00 0 0 0
433 1 6.5480514082125616e+00 1.2679042590005608e+01 1.7726143423848562e+00 0 0 0
434 1 8.0271183843807048e+00 1.2536778138698553e+01 1.2554000699693140e+00 0 0 0
469 1 2.1904534984267086e+00 1.6006323725754314e+01 6.3956172727631533e-01 0 0 0
471 1 4.9433154898404457e+00 1.4458804568527215e+01 4.2344369691721848e+00 0 0 0
472 1 4.2345323822421550e+00 1.5610238632523254e+01 3.4804069010747445e+00 0 0 0
473 1 5.1975761566674787e+00 1.7887655506432537e+01 5.0702630197922414e+00 0 0 0
474 1 6.7344950820461360e+00 1.7855074802325870e+01 5.1355066606826369e+00 0 0 0
475 1 6.7586635115768179e-01 1.7650630515462890e+01 4.5498243667009692e+00 0 0 0
476 1 1.0757899631980556e+00 1.8268861605771747e+01 3.1965440410511454e+00 0 0 0
477 1 5.5824764651099335e+00 1.9399149837000863e+01 1.7520090804552539e+00 0 0 0
478 1 4.1067554626460270e+00 1.9308675645558100e+01 1.1591423509635232e+00 0 0 0
479 1 4.2496294737394624e+00 1.8045195994988113e+01 3.0825725588013881e+00 0 0 0
480 1 3.0773667106310780e+00 1.7490130892338403e+01 3.9234980036090725e+00 0 0 0
481 1 1.3394070859760638e+00 1.9268760115305113e+01 1.2135015370472439e+00 0 0 0
483 1 2.7193386868256439e+00 1.4421918027278933e+01 4.6446199094925777e+00 0 0 0
514 1 6.7962453089787065e+00 1.5751688387712965e+01 1.4557747756838955e+00 0 0 0
489 1 8.3961923444477449e-01 1.4667197188905703e+01 2.0943326049850639e+00 0 0 0
490 1 9.5400433666120754e-01 1.6140558791748408e+01 2.6331458832509758e+00 0 0 0
491 1 4.5741483590507892e+00 1.6053689719594431e+01 2.5437339053055691e-01 0 0 0
494 1 8.9455981447250092e+00 1.5939668211302829e+01 7.9029054203489202e-01 0 0 0
499 1 8.9308332329885651e+00 1.7514994664573432e+01 4.0228246491798920e+00 0 0 0
500 1 7.7946174582069032e+00 1.6759825112823535e+01 3.3147255643637474e+00 0 0 0
505 1 8.0293761507768124e+00 1.9277906169281042e+01 1.3102584343304622e+00 0 0 0
506 1 7.6032020049759659e+00 1.8885581489795399e+01 2.7313554456424538e+00 0 0 0
513 1 7.5958060063983455e+00 1.4620960583200892e+01 2.1403174769982489e+00 0 0 0
82 2 6.0523332557915506e+00 1.4028252242315808e+01 5.5617165009576865e+00 0 0 0
643 1 7.8404502032923240e+00 1.0150177510958866e+01 1.0498205113476812e+01 0 0 0
488 1 7.0102467479041204e+00 1.4148127235711716e+01 5.4079265362304305e+00 0 0 0
536 1 2.7716452146328263e-01 1.4237211227724371e+01 5.2838432737856307e+00 0 0 0
84 2 5.5485366673602377e+00 1.6040248102791956e+01 1.7849852855696760e-01 0 0 0
694 1 4.6149955022050584e+00 2.0173928969938533e+01 9.5090259697921926e+00 0 0 0
85 2 9.5548296198051901e+00 1.6162365156698971e+01 6.1101965332524412e-02 0 0 0
92 2 8.8145809401577733e+00 1.4240244602644129e+01 5.4346577750207912e+00 0 0 0
45 2 2.5921885616773173e+00 1.2361071051928784e+01 7.1414452788864971e+00 0 0 0
57 2 9.3468563561935891e+00 1.2286965399420636e+01 7.2810298368592301e+00 0 0 0
75 2 5.9469335039991300e+00 1.8094441271862067e+01 5.6665876893674678e+00 0 0 0
81 2 2.7219193548529352e+00 1.9041264760585648e+01 7.2299362609342337e+00 0 0 0
402 1 5.8879510049473538e+00 1.2205732253637514e+01 5.7325149039472789e+00 0 0 0
93 2 9.4192846715668050e+00 1.8910970594939744e+01 7.0897343196459675e+00 0 0 0
149 2 4.6198477189791447e+00 1.2739706759053272e+01 8.9450262558340921e+00 0 0 0
151 2 7.1134023995881446e-01 1.2945785763262885e+01 9.1024951279024027e+00 0 0 0
163 2 7.3756357067104572e+00 1.2889452201551988e+01 9.1406325950214278e+00 0 0 0
181 2 2.7806186008763421e+00 1.6291463573923831e+01 7.2783022485882594e+00 0 0 0
182 2 4.1768456345764537e+00 1.4708593989917997e+01 1.0782499939047803e+01 0 0 0
185 2 4.8383842666099444e+00 1.9368256897713898e+01 9.0005581911681087e+00 0 0 0
187 2 8.2056868204408207e-01 1.9623226974063847e+01 9.1240711583607812e+00 0 0 0
191 2 8.9758766190461403e-01 1.5676762746627384e+01 9.2108930651422902e+00 0 0 0
192 2 5.5232193350433567e+00 1.6025914299949147e+01 7.4371053343593170e+00 0 0 0
193 2 9.5062227506151658e+00 1.6138185257505736e+01 7.3092224699276409e+00 0 0 0
199 2 7.5799662531157503e+00 1.9522761528211305e+01 9.0236584194583642e+00 0 0 0
203 2 7.5477885003224863e+00 1.5640279361081207e+01 9.2390105719652649e+00 0 0 0
343 1 6.0694477026450038e+00 1.9910603030386657e+01 5.6518235758951096e+00 0 0 0
401 1 5.7687518317512581e+00 1.0724295636108760e+01 6.2827131958606284e+00 0 0 0
692 1 1.2127915934059323e+00 1.8444631833839946e+01 1.0384673509936860e+01 0 0 0
413 1 3.3966441886605159e+00 1.2517197436585555e+01 7.6764247162214527e+00 0 0 0
414 1 2.5876496678219580e+00 1.1395391097787304e+01 6.9990000677094999e+00 0 0 0
437 1 9.3544048621682503e+00 1.1316708103440710e+01 7.1657854201528757e+00 0 0 0
722 1 6.6228715573176329e+00 1.9400505213986644e+01 8.8746908950751529e+00 0 0 0
484 1 2.3187185060009328e+00 1.3575458839878317e+01 5.8876509707910554e+00 0 0 0
485 1 1.9873713197524314e+00 1.9209846178053571e+01 7.8559775957503870e+00 0 0 0
486 1 2.7013745311950927e+00 1.8077831888600642e+01 7.0750832310683460e+00 0 0 0
487 1 5.8466308600999186e+00 1.4655700537087890e+01 6.2816324386885016e+00 0 0 0
716 1 7.8709275146358548e+00 1.6855423540964875e+01 1.0483093975913382e+01 0 0 0
508 1 9.0273969481864551e+00 1.4991906622643169e+01 6.0262940590495653e+00 0 0 0
509 1 8.6906822079760371e+00 1.9110025176830906e+01 7.7161102503777510e+00 0 0 0
730 1 7.5244538439661195e+00 1.4675659182602569e+01 9.3857285756430162e+00 0 0 0
620 1 1.1149065667218763e+00 1.0218927005225000e+01 1.0496712074852166e+01 0 0 0
621 1 5.5906685423747930e+00 1.2755059030335518e+01 8.8470994632884246e+00 0 0 0
622 1 4.4278310267785193e+00 1.3523494925561033e+01 9.5010586971208770e+00 0 0 0
623 1 4.2639265185174073e+00 1.1407636234331022e+01 1.0107028968750116e+01 0 0 0
625 1 1.3151905008169613e+00 1.2707396917411289e+01 8.3722382026190711e+00 0 0 0
626 1 9.4470747215629691e-01 1.2329870172991310e+01 9.8237741969110850e+00 0 0 0
496 1 1.0082876777506451e+01 1.4414391705728253e+01 4.1622047325257379e+00 0 0 0
649 1 7.6075408672674802e+00 1.2278582490483743e+01 9.8659744862870635e+00 0 0 0
650 1 8.0137631331376991e+00 1.2663782542135568e+01 8.4359107959217887e+00 0 0 0
685 1 2.5183575249233190e+00 1.5701711968936218e+01 6.5463512768879433e+00 0 0 0
686 1 2.1724099033582229e+00 1.6049977602960031e+01 8.0043608665942720e+00 0 0 0
687 1 4.2024202777605231e+00 1.5674630434677475e+01 1.0645396609581748e+01 0 0 0
691 1 1.1960361545185287e+00 1.6906264263468181e+01 1.0445632530398985e+01 0 0 0
729 1 6.7440850625418234e+00 1.5814805395047758e+01 8.7089844798469134e+00 0 0 0
693 1 4.1846371854502715e+00 1.9305661734093658e+01 8.2790221911096484e+00 0 0 0
507 1 9.0382658390033761e+00 1.3458570795718549e+01 5.9807643260085657e+00 0 0 0
695 1 4.3967644534374370e+00 1.8071174500389102e+01 1.0156483441601168e+01 0 0 0
706 1 8.9895763522696204e-01 1.4708990915131929e+01 9.3448206654407251e+00 0 0 0
707 1 5.7209497904291391e+00 1.6813472595624958e+01 6.8908142085304842e+00 0 0 0
708 1 4.5545915493372648e+00 1.6070213530818183e+01 7.5496241284262675e+00 0 0 0
709 1 9.4181295902010156e+00 1.7092853184966383e+01 7.1246119433889499e+00 0 0 0
710 1 8.8842365214785008e+00 1.5967773600208254e+01 8.0424641696249353e+00 0 0 0
721 1 7.7871304226255740e+00 1.8932814559758800e+01 9.7748462091035702e+00 0 0 0
150 2 4.0425725942009425e+00 1.0783715285480330e+01 1.0824088445733635e+01 0 0 0
186 2 4.1609484654052382e+00 1.7467257376832574e+01 1.0888778980755250e+01 0 0 0
273 2 9.3392782163839225e+00 1.2107881124852396e+01 6.0272974359467116e-02 0 0 1
309 2 9.3976598440618488e+00 1.8925352525209131e+01 1.7257101764600533e-01 0 0 1
147 2 5.9628325251674941e+00 1.1441804529810518e+01 1.2720899970024291e+01 0 0 0
148 2 1.3038429483169511e+00 1.1017846397550532e+01 1.1030460538243792e+01 0 0 0