LAMMPS data file via write_data, version 5 Jun 2019, timestep = 0

1188 atoms
2 atom types

0.0000000000000000e+00 2.7307479061157000e+01 xlo xhi
0.0000000000000000e+00 2.7121534008392100e+01 ylo yhi
0.0000000000000000e+00 1.9948365880393599e+01 zlo zhi
-2.5658762433404299e+00 -8.1401161782883200e+00 -8.9986082669422292e+00 xy xz yz

Masses

1 1.008
2 15.9994

Atoms # atomic

601 1 8.2922619020238511e+00 1.1135418906882220e+01 7.7826359756908070e-01 0 0 1
532 1 3.0541712328959494e+00 2.8863203773744019e+00 5.9425238681666439e+00 1 1 0
605 1 1.0872807662412344e+01 8.8426953727770581e+00 8.1524564456859694e-01 0 0 1
54 2 4.2995548456664805e+00 4.2299438886342102e+00 6.2866465308610007e+00 0 0 0
615 1 8.1090243380752636e+00 9.5122306407355843e+00 3.2476735877394685e+00 0 0 1
616 1 8.6566664970438456e+00 8.9884137892010791e+00 4.6057238825935620e+00 0 0 1
618 1 7.1879803109802500e+00 7.3926448374240561e+00 4.0413907462733736e+00 0 0 1
631 1 1.0000307304669962e+01 8.2568303625989401e+00 2.8948345064057119e+00 0 0 1
638 1 8.0318381862578505e+00 1.1761415890405289e+01 3.0082583627590829e+00 0 0 1
639 2 8.4462600093454512e+00 8.7085903912405591e+00 3.6925936155442987e+00 0 0 1
644 2 1.0880523746340113e+01 8.1415159786205518e+00 2.4824846102950575e+00 0 0 1
16 1 4.5213837384160271e+00 4.4913794242123988e+00 5.3702744809949321e+00 0 0 0
656 2 7.6148301243503074e+00 1.1062589371697523e+01 2.4639270047494217e+00 0 0 1
997 1 9.1475411846696737e+00 2.0949038975382179e+00 7.7826468268275706e-01 0 1 1
1000 1 1.2884819398222714e+01 3.0917320430697690e+00 2.7486460106197139e-02 0 1 1
1001 1 1.1728089328067332e+01 -1.9781269481813579e-01 8.1524410662400992e-01 0 1 1
1002 1 1.2426847640933712e+01 9.4870755814549812e-01 1.9135501057657333e-02 0 1 1
1011 1 8.9642924168166580e+00 4.7171514017543803e-01 3.2476693700959287e+00 0 1 1
1012 1 9.5119321411291313e+00 -5.2099636529897797e-02 4.6057210685327084e+00 0 1 1
1014 1 8.0432559642243557e+00 -1.6478721964161780e+00 4.0413942769746392e+00 0 1 1
1027 1 1.0855578262831418e+01 -7.8368027126248208e-01 2.8948304215939147e+00 0 1 1
1034 1 8.8871106819961625e+00 2.7208999030238070e+00 3.0082605232840929e+00 0 1 1
1035 2 9.3015295244991911e+00 -3.3192407163951065e-01 3.6925902361286815e+00 0 1 1
1040 2 1.1735795501418670e+01 -8.9899135384701090e-01 2.4824812523889626e+00 0 1 1
1045 2 1.1482269196120230e+01 4.1933490719947715e+00 2.4544329456026661e-02 0 1 1
1052 2 8.4701030173046163e+00 2.0220757880143645e+00 2.4639257130960930e+00 0 1 1
733 1 -8.1022403561375489e-01 1.1135424544831652e+01 7.7824382929334635e-01 1 0 1
736 1 2.9270541066922533e+00 1.2132244442141440e+01 2.7469279085510237e-02 1 0 1
737 1 1.7703211881739835e+00 8.8426991698454174e+00 8.1523414081500356e-01 1 0 1
738 1 2.4690793737300969e+00 9.9892182432587902e+00 1.9123533632583282e-02 1 0 1
747 1 -9.9347249426185158e-01 9.5122261887402004e+00 3.2476440866645317e+00 1 0 1
748 1 -4.4583469712240831e-01 8.9884102101632042e+00 4.6056964668949520e+00 1 0 1
750 1 -1.9145121161350158e+00 7.3926350286394751e+00 4.0413671097933896e+00 1 0 1
763 1 8.9781265807206290e-01 8.2568302525191690e+00 2.8948156974460759e+00 1 0 1
770 1 -1.0706581945438012e+00 1.1761411583242385e+01 3.0082365040717662e+00 1 0 1
771 2 -6.5623717636509316e-01 8.7085865378868075e+00 3.6925654043068499e+00 1 0 1
776 2 1.7780313374981769e+00 8.1415165667308784e+00 2.4824700433291116e+00 1 0 1
15 1 3.9546360957116407e+00 5.0426237769318352e+00 6.7081101499727707e+00 0 0 0
788 2 -1.4876648145681632e+00 1.1062587284527083e+01 2.4639011955178534e+00 1 0 1
1129 1 4.5054254023584261e-02 2.0948968363356570e+00 7.7825657260555914e-01 1 1 1
1187 2 4.9019871532188368e+00 4.9069947184002354e+00 3.6483345988362834e+00 1 1 1
1133 1 2.6256120973081281e+00 -1.9781773380757106e-01 8.1523263102677246e-01 1 1 1
1140 1 4.0631152162345687e+00 5.1296195507828770e+00 3.1987570777547281e+00 1 1 1
1143 1 -1.3818042479799320e-01 4.7171383625589791e-01 3.2476594260355598e+00 1 1 1
1144 1 4.0946287347762866e-01 -5.2100888985372684e-02 4.6057102434688790e+00 1 1 1
1146 1 -1.0592159229476916e+00 -1.6478678754108220e+00 4.0413837521078335e+00 1 1 1
1159 1 1.7531068506375045e+00 -7.8368559605286847e-01 2.8948190208448374e+00 1 1 1
1166 1 -2.1538027387204073e-01 2.7208953624871546e+00 3.0082486978851191e+00 1 1 1
1167 2 1.9906070610528248e-01 -3.3192440913255639e-01 3.6925791625087849e+00 1 1 1
1172 2 2.6333241097690401e+00 -8.9899765141713717e-01 2.4824702613723462e+00 1 1 1
1139 1 5.2206183062282498e+00 4.0882127694715962e+00 3.2181766950943445e+00 1 1 1
1184 2 -6.3238671076699282e-01 2.0220683687576573e+00 2.4639167622009093e+00 1 1 1
617 1 6.0972095464066207e+00 6.2116667887083343e+00 4.0164494774077566e+00 0 0 1
13 1 6.5241247650515568e+00 9.2373548643716497e+00 9.1588518614665233e+00 0 0 0
587 2 1.5444164531911415e+00 -2.0153849419337666e+00 7.5180907912956130e+00 1 1 0
19 1 8.1882842023440094e+00 9.6661666167945768e+00 6.7778741102760884e+00 0 0 0
20 1 9.3331615454318992e+00 8.6149871749374487e+00 6.7736229586426226e+00 0 0 0
40 1 9.3700637188959544e+00 6.3341358240824110e+00 6.9696470222686084e+00 0 0 0
41 1 5.9222017968040817e+00 9.4775465241531176e+00 6.9478493443024991e+00 0 0 0
48 2 9.0265183813796348e+00 9.4320544361661689e+00 6.3328683945255300e+00 0 0 0
56 2 6.7682942255817089e+00 4.8433444872431686e+00 9.9494035784654375e+00 0 0 0
60 2 4.7122086216072780e+00 6.6748257070969350e+00 9.9070688182356417e+00 0 0 0
66 2 6.5554518956920198e+00 9.9573802193303020e+00 7.5202489004810920e+00 0 0 0
404 1 6.2238579168922863e+00 -3.0912673808404669e+00 9.9487725323379621e+00 0 1 0
409 1 7.3793859717917307e+00 1.9684624187266309e-01 9.1588615357092849e+00 0 1 0
567 1 2.5087000810078579e+00 -2.1767510475797729e+00 7.4789269508377938e+00 1 1 0
415 1 9.0435409175853323e+00 6.2565212237487611e-01 6.7778750472217002e+00 0 1 0
416 1 1.0188419221061014e+01 -4.2552635664370753e-01 6.7736230990951052e+00 0 1 0
436 1 1.0225334874286640e+01 -2.7063753336383338e+00 6.9696495434894503e+00 0 1 0
437 1 6.7774631547439430e+00 4.3702706649953038e-01 6.9478565376132861e+00 0 1 0
444 2 9.8817747045777207e+00 3.9154039496080095e-01 6.3328683267738821e+00 0 1 0
452 2 7.6235754312456283e+00 -4.1971610860867479e+00 9.9494106515252501e+00 0 1 0
456 2 5.5674811543673881e+00 -2.3656908335775277e+00 9.9070790502048993e+00 0 1 0
462 2 7.4107114818691375e+00 9.1686458582239183e-01 7.5202548306930561e+00 0 1 0
140 1 -3.7339010119873466e+00 5.9492490701376033e+00 9.9487501515232317e+00 1 0 0
145 1 -2.5783665194350904e+00 9.2373603672277653e+00 9.1588359713222047e+00 1 0 0
146 1 -3.2747011928266945e+00 8.0833035260056825e+00 9.9511617526749756e+00 1 0 0
151 1 -9.1422094914119789e-01 9.6661613735912937e+00 6.7778515078374779e+00 1 0 0
152 1 2.3065770511423000e-01 8.6149827733216551e+00 6.7736005544370608e+00 1 0 0
172 1 2.6757555221419516e-01 6.3341361646206380e+00 6.9696350194568764e+00 1 0 0
173 1 -3.1802966745071926e+00 9.4775450809410042e+00 6.9478325491721575e+00 1 0 0
180 2 -7.5988387781679823e-02 9.4320475799643706e+00 6.3328433982776060e+00 1 0 0
188 2 -2.3341862046853614e+00 4.8433510579234156e+00 9.9493946568002212e+00 1 0 0
192 2 -4.3902748863354732e+00 6.6748281055373493e+00 9.9070552483837524e+00 1 0 0
198 2 -2.5470471380955022e+00 9.9573801699597819e+00 7.5202314906251155e+00 1 0 0
555 1 1.9767532826774912e+00 1.6931770924576282e+00 5.9696059399536550e+00 1 1 0
541 1 -1.7230905125933096e+00 1.9684213657800420e-01 9.1588498068200153e+00 1 1 0
537 1 8.6251388514614957e-01 -2.0904705890792643e+00 9.1981625028463530e+00 1 1 0
547 1 -5.8930320322195584e-02 6.2564867037017891e-01 6.7778668832858155e+00 1 1 0
548 1 1.0859465827343402e+00 -4.2553104970405098e-01 6.7736160225129396e+00 1 1 0
568 1 1.1228534731977180e+00 -2.7063822838786482e+00 6.9696438089199821e+00 1 1 0
569 1 -2.3250087653151610e+00 4.3703033605363473e-01 6.9478456421166310e+00 1 1 0
576 2 7.7930335427647313e-01 3.9153575954191933e-01 6.3328606116605961e+00 1 1 0
191 2 6.8913870213012185e-01 7.0251354839341467e+00 7.5180794001352229e+00 1 0 0
588 2 -3.5350001811371068e+00 -2.3656940831883966e+00 9.9070633800178971e+00 1 1 0
594 2 -1.6917598538369705e+00 9.1686571659784022e-01 7.5202451227538525e+00 1 1 0
628 1 1.1082347148839929e+01 7.1833807316180174e+00 2.5060880348584891e+00 0 0 1
640 2 6.6315700871394414e+00 6.8015532795329587e+00 4.5810202474004784e+00 0 0 1
992 1 1.0476056917478768e+01 3.2867627612002113e+00 4.5160428448147627e+00 0 1 1
1015 1 9.3256433361933624e+00 4.3235443177556672e+00 4.6859772435184164e+00 0 1 1
1018 1 1.0895529588459070e+01 4.9179673032648274e+00 3.0285154208746703e+00 0 1 1
1025 1 1.1475172990844705e+01 5.0644468695366296e+00 1.5906830852361074e+00 0 1 1
1041 2 9.8508482750379933e+00 3.8472109555733813e+00 4.0103573914873456e+00 0 1 1
1047 2 1.1518286856992489e+01 5.4485979231587613e+00 2.4901151158387544e+00 0 1 1
760 1 1.9798546595865885e+00 7.1833812655522831e+00 2.5060730294153082e+00 1 0 1
772 2 -2.4709180518651830e+00 6.8015444056666503e+00 4.5810018719934975e+00 1 0 1
1124 1 1.3735712458457079e+00 3.2867601842127256e+00 4.5160257731303037e+00 1 1 1
1147 1 2.2315749767231918e-01 4.3235408670205739e+00 4.6859619749016437e+00 1 1 1
1150 1 1.7930399196287830e+00 4.9179678452453226e+00 3.0285003890416520e+00 1 1 1
1157 1 2.3726829580088249e+00 5.0644497174675553e+00 1.5906684014756489e+00 1 1 1
1173 2 7.4836144645399205e-01 3.8472078840004054e+00 4.0103411229045012e+00 1 1 1
1179 2 2.4157962356475586e+00 5.4486001783753686e+00 2.4901007240511590e+00 1 1 1
26 1 7.7594488876567489e+00 5.7674369393771379e+00 5.4755770414483260e+00 0 0 0
31 1 7.8460712479724748e+00 4.5998586976552724e+00 6.4913631266175624e+00 0 0 0
32 1 5.8349065683424701e+00 3.7884025750650836e+00 7.0920294629040272e+00 0 0 0
33 1 6.7229406958295774e+00 3.9788933932122994e+00 8.3701014538873544e+00 0 0 0
52 2 6.7200979240730323e+00 3.5998934907757421e+00 7.4679350593978784e+00 0 0 0
64 2 8.4004237513200621e+00 5.1944911127393185e+00 5.9449443593195817e+00 0 0 0
439 1 7.1489398141980613e+00 1.8594582319733108e+00 7.4904116722409215e+00 0 1 0
158 1 -1.3430355233658555e+00 5.7674326801748652e+00 5.4755626659141390e+00 1 0 0
163 1 -1.2564113464082332e+00 4.5998567300533217e+00 6.4913514150049378e+00 1 0 0
164 1 -3.2675738608406228e+00 3.7883991579028717e+00 7.0920253085116718e+00 1 0 0
165 1 -2.3795373374009667e+00 3.9788962634756744e+00 8.3700943245563675e+00 1 0 0
184 2 -2.3823808221049840e+00 3.5998940777875514e+00 7.4679289264421165e+00 1 0 0
196 2 -7.0205989607860353e-01 5.1944885729349410e+00 5.9449308759925401e+00 1 0 0
571 1 -1.9535313301535788e+00 1.8594594399994446e+00 7.4904042639093875e+00 1 1 0
636 1 6.6507172063733666e+00 1.1227985192936208e+01 2.4952445445671607e+00 0 0 1
1032 1 7.5059902898726518e+00 2.1874731279758879e+00 2.4952429930711455e+00 0 1 1
731 1 2.8759636864006080e+00 9.1368760795188955e+00 3.4713629781488442e+00 1 0 1
732 1 2.7753472109338677e+00 1.0303823128154225e+01 4.4934710745106496e+00 1 0 1
756 1 4.3958589713641487e+00 1.0865034124506497e+01 3.0360673460364827e+00 1 0 1
762 1 4.4918154177687795e+00 1.1483883989196778e+01 1.6126298251955717e+00 1 0 1
779 2 4.8759492780372700e+00 1.1538761798486206e+01 2.5115708356743718e+00 1 0 1
784 2 3.5860177404310729e+00 1.1409055825616107e+01 6.8588839653563299e-02 1 0 1
787 2 3.4207073161715367e+00 9.7412989330213726e+00 4.0174877943748779e+00 1 0 1
1127 1 3.7312496430437432e+00 9.6364751450688679e-02 3.4713664807724434e+00 1 1 1
1128 1 3.6306307700979890e+00 1.2633099773597753e+00 4.4934773020265926e+00 1 1 1
1152 1 5.2511370919058269e+00 1.8245267204138542e+00 3.0360736114424141e+00 1 1 1
1158 1 5.3470887339898372e+00 2.4433771794927113e+00 1.6126356740946943e+00 1 1 1
1175 2 5.7312245928357539e+00 2.4982553549123012e+00 2.5115758428535151e+00 1 1 1
1180 2 4.4412920833934306e+00 2.3685504699361428e+00 6.8593701397084830e-02 1 1 1
1183 2 4.2759915802676938e+00 7.0078631992727014e-01 4.0174943689427591e+00 1 1 1
1 1 5.5133585659442552e+00 7.8413745838330833e+00 5.4514564264793073e+00 0 0 0
3 1 4.3660850894098324e+00 8.8820772042059311e+00 5.2704849178275959e+00 0 0 0
29 1 3.8252162066725486e+00 6.6441937159784121e+00 8.3521393659027545e+00 0 0 0
38 1 3.9049536651994718e+00 7.2935247926530202e+00 6.9377270041855130e+00 0 0 0
47 2 3.4351326231957056e+00 6.6077095531646028e+00 7.4549211756359588e+00 0 0 0
63 2 4.8955115563597040e+00 8.4163380930488429e+00 5.9499604493947036e+00 0 0 0
397 1 6.3686315828185753e+00 -1.1991501593483345e+00 5.4514631717395119e+00 0 1 0
399 1 5.2213581280404258e+00 -1.5844771420125259e-01 5.2704918568142824e+00 0 1 0
425 1 4.6804904275055517e+00 -2.3963340064399690e+00 8.3521485818713188e+00 0 1 0
434 1 4.7602274392392658e+00 -1.7470048383538903e+00 6.9377354053700246e+00 0 1 0
443 2 4.2904085345253709e+00 -2.4328213792209699e+00 7.4549297783600625e+00 0 1 0
459 2 5.7507818577054746e+00 -6.2418987965171491e-01 5.9499674550679229e+00 0 1 0
141 1 7.2385508585917080e-03 6.9500450624716326e+00 9.1981496448655040e+00 1 0 0
577 2 2.5094797222517626e+00 2.2842596350679161e+00 5.4041773880606874e+00 1 1 0
171 1 1.6534228217138445e+00 6.8637728092286050e+00 7.4789143682123456e+00 1 0 0
10 1 7.9594872445465370e+00 7.6329301152505833e+00 1.0001659710544715e+01 0 0 0
406 1 8.8147580034231900e+00 -1.4075704909702669e+00 1.0001666914636301e+01 0 1 0
144 1 -1.6009661893402454e+00 5.4899107363433277e+00 9.9933046251956110e+00 1 0 0
187 2 -2.5455455274926142e+00 8.7345596211421714e+00 9.9987003574215407e+00 1 0 0
602 1 1.2985121163090678e+00 1.4499467332885700e+00 1.9922950430027804e+01 0 0 0
998 1 2.1537938997334702e+00 -7.5905652961754653e+00 1.9922951000115834e+01 0 1 0
1004 1 2.6129964047872267e+00 -5.4565140658819189e+00 1.9925369772944606e+01 0 1 0
1046 2 3.5535113186011298e+00 -8.6964602073354360e+00 1.9923589879629304e+01 0 1 0
734 1 -7.8039708310994929e+00 1.4499529123570145e+00 1.9922934238978495e+01 1 0 0
782 2 -6.4042580817303145e+00 3.4405166693545297e-01 1.9923579941275595e+01 1 0 0
1130 1 -6.9486907736626149e+00 -7.5905706980111542e+00 1.9922944552776375e+01 1 1 0
7 1 4.2222118976015475e+00 6.6361104891587486e+00 1.0752439162441359e+01 0 0 0
1171 2 -1.5605921099842170e+00 -2.2150457962334134e+00 1.5378362739737183e+01 1 1 0
11 1 6.8027546897659690e+00 4.3433865377456238e+00 1.0789425329929497e+01 0 0 0
12 1 7.5015157494946605e+00 5.4899024884969085e+00 9.9933130050702612e+00 0 0 0
21 1 4.0389534945658960e+00 5.0129269878432066e+00 1.3221842703033557e+01 0 0 0
22 1 4.5865874054824269e+00 4.4891121842161823e+00 1.4579896501589047e+01 0 0 0
24 1 3.1179039682923442e+00 2.8933428801383556e+00 1.4015566769583010e+01 0 0 0
37 1 5.9302381656597696e+00 3.7575303242905429e+00 1.2869013598263894e+01 0 0 0
44 1 3.9617739809991495e+00 7.2621119594347379e+00 1.2982432510261926e+01 0 0 0
45 2 4.3761863618806478e+00 4.2092870117136547e+00 1.3666765590394753e+01 0 0 0
50 2 6.8104563430974663e+00 3.6422152328966133e+00 1.2456667487422035e+01 0 0 0
55 2 6.5569428505660241e+00 8.7345524161256058e+00 9.9987153593719658e+00 0 0 0
62 2 3.5447680904660510e+00 6.5632864354825724e+00 1.2438098152991408e+01 0 0 0
403 1 5.0774859137349777e+00 -2.4044091416889604e+00 1.0752450103914008e+01 0 1 0
1126 1 -1.0159023341549513e+00 -1.6129862442686163e+00 1.5916712172171001e+01 1 1 0
407 1 7.6580380763861573e+00 -4.6971179565162684e+00 1.0789433047633135e+01 0 1 0
408 1 8.3567938704479907e+00 -3.5505995824712495e+00 9.9933196135813631e+00 0 1 0
417 1 4.8942418124961407e+00 -4.0275890218658414e+00 1.3221858234962424e+01 0 1 0
418 1 5.4418822397698090e+00 -4.5514007402641647e+00 1.4579911309305519e+01 0 1 0
420 1 3.9732029845000261e+00 -6.1471661274024871e+00 1.4015586183268880e+01 0 1 0
433 1 6.7855281908843326e+00 -5.2829838903234076e+00 1.2869021124702966e+01 0 1 0
440 1 4.8170524051452732e+00 -1.7784087293289836e+00 1.2982443927748999e+01 0 1 0
441 2 5.2314799872521860e+00 -4.8312269216448938e+00 1.3666780951860410e+01 0 1 0
446 2 7.6657454895850830e+00 -5.3982931266813772e+00 1.2456671733850778e+01 0 1 0
451 2 7.4122065605511063e+00 -3.0595513496225557e-01 9.9987255231077494e+00 0 1 0
458 2 4.4000462522811903e+00 -2.4772351140917070e+00 1.2438110723625693e+01 0 1 0
139 1 -4.8802702781676768e+00 6.6361129925914737e+00 1.0752426364931463e+01 1 0 0
142 1 -1.1429979435857054e+00 7.6329400403202836e+00 1.0001648122266749e+01 1 0 0
143 1 -2.2997247088598067e+00 4.3433912457815431e+00 1.0789415238292971e+01 1 0 0
648 2 2.2948198610543802e-01 -2.6936232923429149e-01 1.6260835899554255e+01 0 0 0
153 1 -5.0635252720111827e+00 5.0129267640039670e+00 1.3221831727955191e+01 1 0 0
154 1 -4.5158899188429054e+00 4.4891099303972641e+00 1.4579884215079618e+01 1 0 0
156 1 -5.9845757895121965e+00 2.8933397260485245e+00 1.4015552948664192e+01 1 0 0
169 1 -3.1722432767163027e+00 3.7575248377440440e+00 1.2868999233754760e+01 1 0 0
176 1 -5.1407031348682963e+00 7.2621145479458260e+00 1.2982420581585652e+01 1 0 0
177 2 -4.7262929939308647e+00 4.2092859959348674e+00 1.3666753369653028e+01 1 0 0
182 2 -2.2920250079257380e+00 3.6422094258111688e+00 1.2456653422604154e+01 1 0 0
610 1 4.5131148828468248e-01 -7.9279431180596660e-03 1.5344463727010014e+01 0 0 0
194 2 -5.5577106427291216e+00 6.5632892830489649e+00 1.2438087222810552e+01 1 0 0
535 1 -4.0249983764764901e+00 -2.4044082121397650e+00 1.0752433032231373e+01 1 1 0
538 1 -2.8772331322591160e-01 -1.4075767500769336e+00 1.0001661479565882e+01 1 1 0
539 1 -1.4444440307675497e+00 -4.6971268932637704e+00 1.0789422376899916e+01 1 1 0
540 1 -7.4568895989748718e-01 -3.5506058251496864e+00 9.9933126708862119e+00 1 1 0
549 1 -4.2082472457315454e+00 -4.0275852694454164e+00 1.3221828579991334e+01 1 1 0
550 1 -3.6606124573082002e+00 -4.5513996458119914e+00 1.4579882614459954e+01 1 1 0
552 1 -5.1292903783989789e+00 -6.1471627046575286e+00 1.4015557306477390e+01 1 1 0
565 1 -2.3169574377190836e+00 -5.2829930064182360e+00 1.2869002767953777e+01 1 1 0
572 1 -4.2854418187354533e+00 -1.7784030185838251e+00 1.2982425221526935e+01 1 1 0
573 2 -3.8710099837858998e+00 -4.8312237826316258e+00 1.3666750661762178e+01 1 1 0
578 2 -1.4367377865977620e+00 -5.3983037701911210e+00 1.2456658955923032e+01 1 1 0
583 2 -1.6902732156904796e+00 -3.0596057391534348e-01 9.9987130807096172e+00 1 1 0
590 2 -4.7024466762773223e+00 -2.4772272469711454e+00 1.2438088323820907e+01 1 1 0
609 1 -1.1543620020239498e-01 5.4331816228581076e-01 1.6682298735405418e+01 0 0 0
607 1 2.4540518756390233e+00 4.7380591367169345e+00 1.9133038673226277e+01 0 0 0
608 1 1.7577156652039481e+00 3.5840010896451631e+00 1.9925362266318412e+01 0 0 0
613 1 4.1181992001855141e+00 5.1668694137813507e+00 1.6752051377345587e+01 0 0 0
614 1 5.2630752705355128e+00 4.1156886365691898e+00 1.6747797706866724e+01 0 0 0
634 1 5.2999869736614231e+00 1.8348372510724165e+00 1.6943824308540581e+01 0 0 0
635 1 1.8521232286325189e+00 4.9782494571850959e+00 1.6922036744756543e+01 0 0 0
642 2 4.9564316270843323e+00 4.9327556316989627e+00 1.6307043067940608e+01 0 0 0
650 2 2.6982258201903075e+00 3.4404714349905952e-01 1.9923591262546413e+01 0 0 0
654 2 6.4213894881980238e-01 2.1755265122040957e+00 1.9881257135256021e+01 0 0 0
660 2 2.4853728898776009e+00 5.4580850047405178e+00 1.7494435165582193e+01 0 0 0
593 2 8.3191704705680358e-01 4.0768490213317410e-01 1.3622522988605891e+01 1 1 0
1003 1 3.3093327429587092e+00 -4.3024558800373880e+00 1.9133047341536255e+01 0 1 0
546 1 -6.9547041873176951e-03 6.3030674487591387e-01 1.3172943433740206e+01 1 1 0
1009 1 4.9734879827725029e+00 -3.8736484885915479e+00 1.6752064841623902e+01 0 1 0
1010 1 6.1183676601361201e+00 -4.9248260382234061e+00 1.6747813753535688e+01 0 1 0
1030 1 6.1552840739308499e+00 -7.2056761480113733e+00 1.6943835069299467e+01 0 1 0
1031 1 2.7074083163140781e+00 -4.0622706097617565e+00 1.6922043750902017e+01 0 1 0
1038 2 5.8117222317532287e+00 -4.1077597123852474e+00 1.6307058918524945e+01 0 1 0
545 1 1.1505526710227176e+00 -4.1109584706124558e-01 1.3192366299045711e+01 1 1 0
1050 2 1.4974191700131989e+00 -6.8649868843427146e+00 1.9881258827456964e+01 0 1 0
1056 2 3.3406570585579907e+00 -3.5824339613218479e+00 1.7494442348551512e+01 0 1 0
23 1 2.0271341851137974e+00 1.7123640701623888e+00 1.3990631054252153e+01 0 0 0
739 1 -6.6484260434665554e+00 4.7380612507901567e+00 1.9133024904467366e+01 1 0 0
740 1 -7.3447645790343259e+00 3.5840050399103891e+00 1.9925348066689978e+01 1 0 0
745 1 -4.9842778388501436e+00 5.1668649369605033e+00 1.6752037404357822e+01 1 0 0
746 1 -3.8394010609388083e+00 4.1156853516243261e+00 1.6747786296008133e+01 1 0 0
766 1 -3.8024968078738119e+00 1.8348350120813013e+00 1.6943817139607969e+01 1 0 0
767 1 -7.2503549640012972e+00 4.9782454379210028e+00 1.6922020270678296e+01 1 0 0
774 2 -4.1460443770686410e+00 4.9327520000193656e+00 1.6307030587022727e+01 1 0 0
1181 2 -2.5256518969599266e+00 -6.5146757608070267e+00 1.7492268357857828e+01 1 1 0
786 2 -8.4603430372466750e+00 2.1755334215151478e+00 1.9881239577698924e+01 1 0 0
792 2 -6.6171047725226142e+00 5.4580807281611783e+00 1.7494418440427488e+01 1 0 0
1161 1 -1.5613676635263500e+00 -6.6760387486989430e+00 1.7453105858871588e+01 1 1 0
1135 1 -5.7931616923669340e+00 -4.3024537032756927e+00 1.9133031636836648e+01 1 1 0
1136 1 -6.4894948366411995e+00 -5.4565128758421428e+00 1.9925356483531260e+01 1 1 0
1141 1 -4.1290110904413835e+00 -3.8736498076429005e+00 1.6752042092689074e+01 1 1 0
1142 1 -2.9841331212433326e+00 -4.9248288414931700e+00 1.6747792024639171e+01 1 1 0
1162 1 -2.9472119002295787e+00 -7.2056731776628231e+00 1.6943819038685859e+01 1 1 0
1163 1 -6.3950865795011573e+00 -4.0622659295331580e+00 1.6922027576903897e+01 1 1 0
1170 2 -3.2907784396583333e+00 -4.1077638277817359e+00 1.6307034563903173e+01 1 1 0
1178 2 -5.5489702123547140e+00 -8.6964642476582892e+00 1.9923579242382786e+01 1 1 0
1182 2 -7.6050658505524940e+00 -6.8649927331132368e+00 1.9881251898776419e+01 1 1 0
1188 2 -5.7618377704582677e+00 -3.5824307460013705e+00 1.7494427253339030e+01 1 1 0
34 1 7.0122784962397979e+00 2.6840798021059165e+00 1.2480271800566570e+01 0 0 0
46 2 2.5614953489788066e+00 2.3022526340932181e+00 1.4555199201812171e+01 0 0 0
398 1 6.4059916668470089e+00 -1.2125385441087522e+00 1.4490227589907969e+01 0 1 0
421 1 5.2555734585847231e+00 -1.7576087260655449e-01 1.4660158454794555e+01 0 1 0
424 1 6.8254613165023912e+00 4.1866514037066516e-01 1.3002696980805354e+01 0 1 0
431 1 7.4051061974955186e+00 5.6514503401561722e-01 1.1564865168156865e+01 0 1 0
447 2 5.7807818732772027e+00 -6.5209301630903571e-01 1.3984540528643489e+01 0 1 0
453 2 7.4482175529986021e+00 9.4929701830504332e-01 1.2464296887918900e+01 0 1 0
166 1 -2.0902040096736219e+00 2.6840737182265331e+00 1.2480256508982244e+01 1 0 0
178 2 -6.5409844901629297e+00 2.3022501725298978e+00 1.4555185867971161e+01 1 0 0
530 1 -2.6965002828998581e+00 -1.2125429505602972e+00 1.4490212650239505e+01 1 1 0
553 1 -3.8469145275653935e+00 -1.7576196241697950e-01 1.4660147120532834e+01 1 1 0
556 1 -2.2770280956927538e+00 4.1865949701950189e-01 1.3002682497369879e+01 1 1 0
563 1 -1.6973789193452467e+00 5.6513726873868464e-01 1.1564851805643958e+01 1 1 0
579 2 -3.3217092222421067e+00 -6.5209498019255552e-01 1.3984527288611664e+01 1 1 0
585 2 -1.6542691943408561e+00 9.4928943011772304e-01 1.2464283602666461e+01 1 1 0
620 1 3.6893737973766259e+00 1.2681336556961105e+00 1.5449754913990809e+01 0 0 0
625 1 3.7759965474190986e+00 1.0055699006198715e-01 1.6465543304585044e+01 0 0 0
626 1 1.7648357559969314e+00 -7.1090212126922747e-01 1.7066219798795657e+01 0 0 0
627 1 2.6528720760376645e+00 -5.2040607357463653e-01 1.8344289271423534e+01 0 0 0
646 2 2.6500286005993994e+00 -8.9940755165760766e-01 1.7442123621990103e+01 0 0 0
658 2 4.3303484990105670e+00 6.9518777092238793e-01 1.5919122267287575e+01 0 0 0
1033 1 3.0788835320540624e+00 -2.6398408109491953e+00 1.7464600851428315e+01 0 1 0
752 1 -5.4131071059551958e+00 1.2681330324113214e+00 1.5449745977024525e+01 1 0 0
757 1 -5.3264864336533444e+00 1.0055690160829300e-01 1.6465534949505528e+01 1 0 0
758 1 -7.3376512773754667e+00 -7.1089571454650091e-01 1.7066211802537143e+01 1 0 0
759 1 -6.4496127607021307e+00 -5.2040104969780643e-01 1.8344280005573527e+01 1 0 0
778 2 -6.4524582565099333e+00 -8.9940273895051348e-01 1.7442114311428487e+01 1 0 0
790 2 -4.7721332774065806e+00 6.9518677925250838e-01 1.5919114171657286e+01 1 0 0
1165 1 -6.0236095404376702e+00 -2.6398370049210893e+00 1.7464587736394076e+01 1 1 0
42 1 2.5806549117460760e+00 6.7286816419732602e+00 1.2469416106561409e+01 0 0 0
438 1 3.4359332941089766e+00 -2.3118389623811582e+00 1.2469429028044262e+01 0 1 0
137 1 -1.1940960098444275e+00 4.6375746431100655e+00 1.3445546222053894e+01 1 0 0
138 1 -1.2947132353091071e+00 5.8045235108037430e+00 1.4467653196934247e+01 1 0 0
162 1 3.2580022745833315e-01 6.3657348050142666e+00 1.3010250320318526e+01 1 0 0
168 1 4.2175699170448055e-01 6.9845827213998604e+00 1.1586811740936232e+01 1 0 0
185 2 8.0589056922428437e-01 7.0394616410902788e+00 1.2485752922703833e+01 1 0 0
190 2 -4.8403304653887247e-01 6.9097526829177616e+00 1.0042769585830627e+01 1 0 0
193 2 -6.4935330558903193e-01 5.2419987842079996e+00 1.3991670338476162e+01 1 0 0
533 1 -3.3881505040153481e-01 -4.4029391243838134e+00 1.3445554851787618e+01 1 1 0
534 1 -4.3943746689362406e-01 -3.2359933420371623e+00 1.4467664457301613e+01 1 1 0
558 1 1.1810782415524566e+00 -2.6747790442213235e+00 1.3010264035349023e+01 1 1 0
564 1 1.2770353362336682e+00 -2.0559310125298280e+00 1.1586825627091800e+01 1 1 0
581 2 1.6611688430236589e+00 -2.0010522094706857e+00 1.2485766771071885e+01 1 1 0
586 2 3.7124316129847656e-01 -2.1307627060625793e+00 1.0042782814978059e+01 1 1 0
589 2 2.0592513438046467e-01 -3.7985154716777534e+00 1.3991682194300365e+01 1 1 0
595 1 1.4432865730486224e+00 3.3420713048727686e+00 1.5425643032199412e+01 0 0 0
597 1 2.9601450133958096e-01 4.3827739848716849e+00 1.5244671236483221e+01 0 0 0
623 1 -2.4485616853542513e-01 2.1448908468410348e+00 1.8326328369907841e+01 0 0 0
632 1 -1.6511863627596846e-01 2.7942203186946788e+00 1.6911915389381470e+01 0 0 0
641 2 -6.3493918865538745e-01 2.1084051315665064e+00 1.7429110058028815e+01 0 0 0
657 2 8.2543915940071422e-01 3.9170338068820660e+00 1.5924147595371407e+01 0 0 0
991 1 2.2985735049218485e+00 -5.6984438678594280e+00 1.5425650044766369e+01 0 1 0
993 1 1.1512988065286587e+00 -4.6577423672643885e+00 1.5244676678211357e+01 0 1 0
1019 1 6.1042341646535991e-01 -6.8956232236309729e+00 1.8326330318686139e+01 0 1 0
1028 1 6.9016247325934099e-01 -6.2462936840671421e+00 1.6911917703870703e+01 0 1 0
1037 2 2.2034072697841189e-01 -6.9321085575895216e+00 1.7429111817147994e+01 0 1 0
1053 2 1.6807232355895989e+00 -5.1234829461509435e+00 1.5924152934494678e+01 0 1 0
735 1 -4.0628295055243022e+00 2.4507395291344132e+00 1.9172333218020285e+01 1 0 0
753 1 -2.9485903756532643e+00 6.2343918694757825e+00 1.5943781716844191e+01 1 0 0
765 1 -2.4166485891724401e+00 2.3644676530347519e+00 1.7453098789863063e+01 1 0 0
785 2 -3.3809323135155158e+00 2.5258332067050624e+00 1.7492261855246348e+01 1 0 0
1131 1 -3.2075547920240499e+00 -6.5897649803525269e+00 1.9172338433848456e+01 1 1 0
1149 1 -2.0933225844557466e+00 -2.8061279740079845e+00 1.5943788048016319e+01 1 1 0
604 1 1.2029534597537925e+01 1.2132241567717079e+01 2.7477877121531845e-02 0 0 1
606 1 1.1571562876966286e+01 9.9892143509794025e+00 1.9132654813084845e-02 0 0 1
649 2 1.0626989115207831e+01 1.3233863576013071e+01 2.4535255106689816e-02 0 0 1
781 2 1.5245091743387187e+00 1.3233867141071510e+01 2.4522468794438257e-02 1 0 1
1132 1 3.7823256017098634e+00 3.0917365553539051e+00 2.7474222857877539e-02 1 1 1
1134 1 3.3243624922105877e+00 9.4870768583244947e-01 1.9124744156439551e-02 1 1 1
1177 2 2.3797759186767315e+00 4.1933525068293580e+00 2.4529312570499669e-02 1 1 1
8 1 5.3685812569709599e+00 5.9492455242660025e+00 9.9487634064932706e+00 0 0 0
14 1 5.8277854363952573e+00 8.0832984564850285e+00 9.9511751836292657e+00 0 0 0
410 1 6.6830519530342860e+00 -9.5721230500423404e-01 9.9511859805909708e+00 0 1 0
536 1 -2.8786262896256964e+00 -3.0912728786855848e+00 9.9487597501209368e+00 1 1 0
542 1 -2.4194276156524848e+00 -9.5721774563760276e-01 9.9511701630521809e+00 1 1 0
584 2 -1.4789069792549903e+00 -4.1971677034797494e+00 9.9494013649466524e+00 1 1 0
159 1 1.1214644154502711e+00 1.0733686176365813e+01 5.9695948129520024e+00 1 0 0
799 1 7.4369734577981568e+00 2.0175932401553595e+01 7.7824717673731014e-01 0 0 1
802 1 1.1174251040301492e+01 2.1172770321347137e+01 2.7467687933545631e-02 0 0 1
803 1 1.0017532449511437e+01 1.7883217990952311e+01 8.1522775177720863e-01 0 0 1
804 1 1.0716284676443570e+01 1.9029742030609967e+01 1.9118700358533972e-02 0 0 1
813 1 7.2537297224541586e+00 1.8552739681926223e+01 3.2476443415683334e+00 0 0 1
814 1 7.8013696398169436e+00 1.8028925616737236e+01 4.6056962290893155e+00 0 0 1
816 1 6.3326963586419698e+00 1.6433150866353895e+01 4.0413710993586482e+00 0 0 1
829 1 9.1450218249558670e+00 1.7297346398790133e+01 2.8948109798767141e+00 0 0 1
836 1 7.1765301966640580e+00 2.0801924661367728e+01 3.0082426621806553e+00 0 0 1
837 2 7.5909698883784475e+00 1.7749101512385568e+01 3.6925647726241841e+00 0 0 1
842 2 1.0025239987762614e+01 1.7182034082002360e+01 2.4824641449188651e+00 0 0 1
847 2 9.7716983779513793e+00 2.2274384790019869e+01 2.4530787183764745e-02 0 0 1
854 2 6.7595280547767436e+00 2.0103099515144578e+01 2.4639049549569103e+00 0 0 1
931 1 -1.6655065894387566e+00 2.0175927061752358e+01 7.7823769960518074e-01 1 0 1
934 1 2.0717637623023677e+00 2.1172764819236111e+01 2.7459067530585742e-02 1 0 1
935 1 9.1504732060018923e-01 1.7883209134917749e+01 8.1521586553705494e-01 1 0 1
254 2 5.9130178214891487e+00 1.3883869856669174e+01 9.9493934677067788e+00 0 0 0
945 1 -1.8487542972009887e+00 1.8552736512659806e+01 3.2476311263589062e+00 1 0 1
946 1 -1.3011157024814823e+00 1.8028917891001942e+01 4.6056820121237365e+00 1 0 1
948 1 -2.7697928572976025e+00 1.6433149540319199e+01 4.0413575214614772e+00 1 0 1