LAMMPS data file via write_data, version 5 Jun 2019, timestep = 0

648 atoms
2 atom types

0.0000000000000000e+00 1.9169302763202001e+01 xlo xhi
0.0000000000000000e+00 1.9178425595198402e+01 ylo yhi
0.0000000000000000e+00 1.9217873078998402e+01 zlo zhi
-7.3926392119312602e-03 3.8643874914361899e-03 -7.3800882855683996e-03 xy xz yz

Masses

1 1.008
2 15.9994

Atoms # atomic

4 2 9.6283095695113407e-03 3.1867203045351862e+00 3.1913129831196416e+00 0 0 0
35 2 9.5814370829658397e+00 6.3633875431623492e+00 3.2206467535848811e+00 0 0 0
434 1 8.5298071436881422e+00 7.4564482101159015e+00 8.5981794989488041e+00 0 0 0
5 2 1.5731982796663242e+00 1.5508697121494655e+00 1.5894013836812741e+00 0 0 0
6 2 4.7979213871635507e+00 4.8024047301852697e+00 1.5461264543546887e+00 0 0 0
7 2 4.7946204952519524e+00 1.6108498300329464e+00 4.8314348474424236e+00 0 0 0
8 2 1.6152606635691613e+00 4.7814169833321056e+00 4.7872765500491363e+00 0 0 0
82 2 9.5587802274781097e+00 3.2153602838935198e+00 6.4474189576556880e+00 0 0 0
433 1 8.5216841490246349e+00 8.5348013019422559e+00 7.4742458607962687e+00 0 0 0
12 2 6.3685978829970917e+00 3.2200584581154783e+00 3.1925872319434179e+00 0 0 0
13 2 7.9837622818962632e+00 1.6604699641052563e+00 1.5793068824379972e+00 0 0 0
16 2 7.9437160457143445e+00 4.7900121372748927e+00 4.8202091973918684e+00 0 0 0
386 1 8.5386097528001805e+00 2.1596829866613456e+00 7.4770747348023914e+00 0 0 0
27 2 3.2181702864830188e+00 6.3704632839994533e+00 3.1776990793731379e+00 0 0 0
29 2 1.6396903805537228e+00 8.0387609153689183e+00 1.6285262051302589e+00 0 0 0
31 2 4.7879093376747122e+00 7.9230825839026497e+00 4.8156657599288639e+00 0 0 0
3 2 3.2208483336297205e+00 2.8442469432680032e-02 3.2117955088260883e+00 0 0 0
418 1 2.1761543643804679e+00 8.5195589471737048e+00 7.4015777853488416e+00 0 0 0
37 2 7.9673429448581787e+00 7.9438537178465767e+00 1.6254770002670329e+00 0 0 0
417 1 2.1627284498060817e+00 7.4120791703891324e+00 8.5053089582966699e+00 0 0 0
74 2 3.1764041234628118e+00 3.1841935144018279e+00 6.4169298438064883e+00 0 0 0
416 1 5.3485549139001221e-01 9.0059342384600072e+00 8.9623022627852791e+00 0 0 0
431 1 6.8816002600322363e+00 9.0383596763029335e+00 9.0392139265923390e+00 0 0 0
77 2 1.6311313781031926e+00 1.5393074052442361e+00 8.0409398833925803e+00 0 0 0
78 2 4.7805812658769300e+00 4.7664652449140537e+00 8.0417251453547038e+00 0 0 0
410 1 5.5818460240471679e-01 6.9188115629832332e+00 6.9007633008149192e+00 0 0 0
426 1 6.9173965922533256e+00 6.9205690593467741e+00 7.0308024204592501e+00 0 0 0
34 2 9.5426288412333680e+00 9.5565816215807580e+00 2.1659523021742719e-02 0 0 0
85 2 7.9786224383885793e+00 1.5711940663998574e+00 8.0232837144076683e+00 0 0 0
409 1 5.5589021939861305e-01 5.8106831248632265e+00 5.8034572968421321e+00 0 0 0
385 1 7.4330415885681846e+00 2.1664754489594933e+00 8.5759583507988708e+00 0 0 0
101 2 1.5810042588328446e+00 7.9495073776647649e+00 7.9298165821940367e+00 0 0 0
105 2 6.3662136340587683e+00 6.3647298554586929e+00 6.4423822836124014e+00 0 0 0
106 2 9.5525942734073084e+00 9.5511122202090917e+00 6.4471027463196924e+00 0 0 0
425 1 5.8151551252338356e+00 5.8090683033107311e+00 7.0307272839735777e+00 0 0 0
109 2 7.9318285377396665e+00 7.9902683121847105e+00 8.0359246955837627e+00 0 0 0
218 1 5.6202631191781383e-01 5.1352288741250696e-01 5.6081380997938490e-01 0 0 0
219 1 3.7397996555955269e+00 3.7507262019403997e+00 5.5239923384932887e-01 0 0 0
224 1 5.5414573475343432e-01 2.5944926268113329e+00 2.6332028434243000e+00 0 0 0
225 1 2.1711133111221139e+00 1.0177515762981941e+00 2.1518153273139697e+00 0 0 0
226 1 2.1561764610797685e+00 2.1162870807699790e+00 1.0422990473019751e+00 0 0 0
227 1 5.3534638803048749e+00 4.2518109870846201e+00 2.1349266961597162e+00 0 0 0
228 1 4.2540642457293361e+00 5.3577650514791255e+00 2.1422340248616738e+00 0 0 0
229 1 4.2471168146029994e+00 1.0253469313232400e+00 4.2681216029305693e+00 0 0 0
230 1 5.3568052629920206e+00 1.0158326067839631e+00 5.3671252468486959e+00 0 0 0
231 1 1.0602002925937484e+00 4.1974527014986487e+00 4.2308502192206197e+00 0 0 0
232 1 2.1544955806395634e+00 4.1871966482491780e+00 5.3481607029871459e+00 0 0 0
234 1 6.9594501172420218e+00 6.1259943916821213e-01 5.4191845287400742e-01 0 0 0
236 1 9.0129073177526902e+00 2.6972276589527939e+00 5.4105675457313829e-01 0 0 0
239 1 5.8171587520096750e+00 2.6592697081186247e+00 3.7745664557441323e+00 0 0 0
240 1 6.9139411082012820e+00 3.7684412627834276e+00 3.7943590319905125e+00 0 0 0
241 1 7.4222759767573905e+00 2.2012373669325358e+00 2.1720070677646621e+00 0 0 0
242 1 8.5400894348920691e+00 1.1091087082970335e+00 2.1652345300578895e+00 0 0 0
247 1 7.3953753368637560e+00 5.3405691363907009e+00 5.4163125210520455e+00 0 0 0
248 1 8.5104810260364570e+00 4.2469489070893705e+00 5.4053290320723812e+00 0 0 0
268 1 2.6813256406745629e+00 9.0677939949114901e+00 5.8136770962155315e-01 0 0 0
269 1 2.6615465325217968e+00 5.8081026994944143e+00 3.7538073951989617e+00 0 0 0
270 1 3.7636290576723850e+00 6.9132855381981155e+00 3.7842492727395616e+00 0 0 0
271 1 6.0053294986390759e-01 9.0695542705604542e+00 2.6624601760489912e+00 0 0 0
273 1 2.1897993752295664e+00 7.4402523531127898e+00 2.1735743055196655e+00 0 0 0
274 1 1.0864878948943981e+00 7.4531187649012542e+00 1.0720634970051670e+00 0 0 0
277 1 5.3317638316658291e+00 7.3803561830429416e+00 5.4236255308915986e+00 0 0 0
278 1 4.2458558281579002e+00 8.5068454512270986e+00 5.3845255483817533e+00 0 0 0
281 1 5.8227463362501108e+00 5.8242447333383707e+00 5.0034194821612088e-01 0 0 0
285 1 8.9895868144090105e+00 5.8209974809702514e+00 3.7803090455521686e+00 0 0 0
286 1 8.9924661104625869e+00 6.9159798132329318e+00 2.6669990914811526e+00 0 0 0
287 1 5.8610569143722779e+00 8.9457983319440491e+00 3.8101468054791727e+00 0 0 0
288 1 6.9511701130541139e+00 8.9632841349618744e+00 2.6902841325721685e+00 0 0 0
289 1 8.5206948852763666e+00 8.5071612471073284e+00 1.0467168357353747e+00 0 0 0
290 1 7.4240770170839641e+00 7.4005573332271872e+00 1.0196593501057212e+00 0 0 0
363 1 2.6390707281288406e+00 2.5875848570945177e+00 6.9768498796602687e+00 0 0 0
364 1 3.7466778407774788e+00 2.6015252170707219e+00 5.8732350075242987e+00 0 0 0
366 1 2.6472660001025181e+00 4.9937851750914369e-01 9.0668038526796764e+00 0 0 0
369 1 1.0420935895604748e+00 1.0042561079301962e+00 7.4706252167996565e+00 0 0 0
370 1 1.0418303434032878e+00 2.1044965088636944e+00 8.5807542416469165e+00 0 0 0
371 1 4.1849279251669236e+00 5.3239164433355892e+00 8.5832547903959888e+00 0 0 0
372 1 4.1986869195345893e+00 4.2200746790399100e+00 7.4760840684071201e+00 0 0 0
378 1 6.9600578446315513e+00 5.3359754331665588e-01 6.9642270808168680e+00 0 0 0
382 1 9.0246845840635501e+00 5.3328357729243248e-01 9.0426800006956363e+00 0 0 0
384 1 5.8101692349570833e+00 3.7501624164935796e+00 9.0761207424736838e+00 0 0 0
98 2 3.2195662249079859e+00 9.5763439578333642e+00 6.3950180956272069e+00 0 0 0
36 2 6.4169115494338591e+00 9.5436586936525156e+00 3.2702906964133054e+00 0 0 0
99 2 3.1699215301979158e+00 6.3982600708792257e+00 9.5800241044092225e+00 0 0 0
2 2 3.1836663650835422e+00 3.1588264666287347e+00 5.9986006183233350e-03 0 0 0
25 2 5.4115568578887566e-02 6.4107816286642310e+00 3.6402842911099638e-02 0 0 0
570 1 5.8003028721864061e+00 6.9686457691634915e+00 1.2245592957323979e+01 0 0 0
79 2 4.8058834711331535e+00 1.5922826283632234e+00 1.1199557492750127e+01 0 0 0
80 2 1.5781300338911517e+00 4.8165871285139774e+00 1.1164665237572370e+01 0 0 0
88 2 8.0225613685033128e+00 4.8121522477913912e+00 1.1199290362403394e+01 0 0 0
103 2 4.7557113112867873e+00 7.9883987214990757e+00 1.1230564622584057e+01 0 0 0
155 2 9.5749830518931152e+00 1.9537745593596171e-02 1.6025337322226463e+01 0 0 0
578 1 8.5168431710967756e+00 8.5433938498463426e+00 1.3852055265292798e+01 0 0 0
146 2 3.1968795087159965e+00 3.2153311033040044e+00 1.2766159072671902e+01 0 0 0
148 2 4.0834810095431565e-02 3.1443889592090732e+00 1.6032646892821852e+01 0 0 0
149 2 1.6498417615392567e+00 1.5818292951795452e+00 1.4394747853898227e+01 0 0 0
150 2 4.7451996690262481e+00 4.8117503231929843e+00 1.4421235835364406e+01 0 0 0
151 2 4.7699292798025388e+00 1.6094274510288775e+00 1.7567403583297224e+01 0 0 0
152 2 1.6016304878836634e+00 4.7680060002026652e+00 1.7635644746786912e+01 0 0 0
169 2 1.0836726179014917e-02 6.3901788053064026e+00 1.2792027775505385e+01 0 0 0
577 1 8.5183194376984250e+00 7.4342633408386822e+00 1.4948353200939859e+01 0 0 0
575 1 6.9211128918892353e+00 9.0407983455896481e+00 1.5447302904582386e+01 0 0 0
156 2 6.3813362727499419e+00 3.2113468884858309e+00 1.5980664110384541e+01 0 0 0
157 2 7.9894105564820581e+00 1.5992549604733768e+00 1.4392451490088540e+01 0 0 0
160 2 8.0146821248627838e+00 4.7770164026208901e+00 1.7569146606649056e+01 0 0 0
574 1 9.0458671317384862e+00 5.8211325449574662e+00 1.6528140429860354e+01 0 0 0
9 2 6.3790495064944377e+00 4.7531031365266228e-02 1.9206822123431863e+01 0 0 -1
171 2 3.1399557780488840e+00 6.4158698438608051e+00 1.6028084204478191e+01 0 0 0
566 1 5.3383062739358706e+00 8.5718781078393480e+00 1.7057881414435784e+01 0 0 0
173 2 1.5374165971775948e+00 8.0141908279685872e+00 1.4417533936866439e+01 0 0 0
175 2 4.7843150989374248e+00 7.9839008472730475e+00 1.7610327947366770e+01 0 0 0
177 2 6.3499150255332690e+00 6.3667326696089814e+00 1.2788229783394726e+01 0 0 0
565 1 4.2489989561479646e+00 8.5784136796626473e+00 1.8174831625378459e+01 0 0 0
562 1 9.9493760036643741e-01 8.5568043310074611e+00 1.5025386195700158e+01 0 0 0
569 1 6.9031697428017829e+00 6.9463347985654194e+00 1.3350647088783111e+01 0 0 0
181 2 7.9257196559674759e+00 7.9912132596362158e+00 1.4403705427199059e+01 0 0 0
220 1 2.6305003400914875e+00 3.7417967797249956e+00 1.8676054115166536e+01 0 0 0
235 1 9.0143347567884593e+00 3.7727031881771276e+00 1.8630571454243366e+01 0 0 0
282 1 5.8199675242892051e+00 6.9305924837786188e+00 1.8621043861378041e+01 0 0 0
368 1 5.3127919850587901e-01 3.7531639956468892e+00 1.0139568014316000e+01 0 0 0
373 1 5.3606656339625793e+00 1.0040820257300858e+00 1.1750196344320035e+01 0 0 0
374 1 4.2614684398232336e+00 9.9823900987282543e-01 1.0643029118868826e+01 0 0 0
375 1 2.1345382352872879e+00 4.2510393337995804e+00 1.1737647705451414e+01 0 0 0
376 1 1.0353266758954538e+00 5.3615041287628662e+00 1.1771476207276164e+01 0 0 0
383 1 5.8438747713904062e+00 2.6424731000440600e+00 1.0175692702534628e+01 0 0 0
391 1 7.4235018313375614e+00 5.3558813206119504e+00 1.1749842807728140e+01 0 0 0
392 1 7.4366844400163385e+00 4.2591178553302873e+00 1.0642225234896154e+01 0 0 0
413 1 3.7214198792412319e+00 6.9477018646851043e+00 1.0172190210331751e+01 0 0 0
414 1 2.6057659367260868e+00 5.8552054882503288e+00 1.0169718075845950e+01 0 0 0
421 1 4.1963614967529566e+00 8.5775122751328414e+00 1.1776215834084628e+01 0 0 0
422 1 5.2945570985222723e+00 8.5774503351833271e+00 1.0664282569356399e+01 0 0 0
429 1 9.0547393520050434e+00 5.8687363902564700e+00 1.0179441762048764e+01 0 0 0
507 1 3.7547504507250240e+00 2.6257503364140193e+00 1.2218856901579334e+01 0 0 0
508 1 2.6539415977127532e+00 2.6230870207403694e+00 1.3324939317085510e+01 0 0 0
509 1 3.7488469601147854e+00 5.5576817982610749e-01 1.6558688859295714e+01 0 0 0
510 1 2.6655408849494377e+00 5.4080880610634652e-01 1.5434934785161925e+01 0 0 0
511 1 5.9033084821837289e-01 3.7360049786507874e+00 1.6586682549284660e+01 0 0 0
513 1 1.0777199596913352e+00 2.1397773230505037e+00 1.4959637822458877e+01 0 0 0
514 1 1.0397519551481214e+00 1.0289237174211703e+00 1.3863769596648988e+01 0 0 0
515 1 5.3035083036436843e+00 5.3589408027969494e+00 1.3831571547994363e+01 0 0 0
516 1 4.2016422746152768e+00 4.2564310136431738e+00 1.3825957781234438e+01 0 0 0
517 1 4.2173871622583032e+00 2.1543656162651885e+00 1.8164754650412089e+01 0 0 0
518 1 5.3353593195856073e+00 1.0676526187653013e+00 1.8154448948891293e+01 0 0 0
519 1 1.0528211765408322e+00 5.3591058818433872e+00 1.8191187508799139e+01 0 0 0
520 1 2.1499109514082759e+00 5.3605911874278958e+00 1.7081502236639864e+01 0 0 0
522 1 6.9512032334308786e+00 5.3627207345794392e-01 1.3364471114773915e+01 0 0 0
524 1 9.0542003969381657e+00 3.7761897478422877e+00 1.2228807305385249e+01 0 0 0
525 1 9.0267647706116314e+00 5.7501758401225234e-01 1.5434869848225043e+01 0 0 0
527 1 5.7965250328778426e+00 2.6516486888065876e+00 1.6531782704740877e+01 0 0 0
528 1 5.7865419857938925e+00 3.7627569960630716e+00 1.5432134608766836e+01 0 0 0
529 1 8.5423325149275176e+00 2.1917883237146754e+00 1.3844233316858732e+01 0 0 0
530 1 7.4331971225982274e+00 2.1855898784944134e+00 1.4943810215647716e+01 0 0 0
535 1 7.4268831200886218e+00 5.3393075698742303e+00 1.8115109455154730e+01 0 0 0
536 1 7.4187099088793351e+00 4.2318438843278905e+00 1.7015486920029694e+01 0 0 0
554 1 5.3928370309538520e-01 6.9595254916879927e+00 1.3388748358006117e+01 0 0 0
555 1 2.5623878743093362e+00 9.0712562200203539e+00 1.3360925337412825e+01 0 0 0
557 1 3.7390972967830223e+00 6.9666278837765310e+00 1.6571861154926154e+01 0 0 0
558 1 3.7179693564082026e+00 5.8640035212351584e+00 1.5463404419497865e+01 0 0 0
561 1 2.1066059170137339e+00 7.4645029974591015e+00 1.4994028419734137e+01 0 0 0
33 2 6.4127090937657840e+00 6.3633192995370704e+00 1.9155144440128982e+01 0 0 -1
84 2 6.4178894358752023e+00 3.2133336823999046e+00 9.6259185779644927e+00 0 0 0
26 2 3.2386219538253713e+00 9.6300498180769551e+00 6.2072249333571701e-03 0 0 1
30 2 4.8351709841104311e+00 1.1153333173456032e+01 1.6601489268450464e+00 0 0 0
32 2 1.6314898297984868e+00 1.1249761372999153e+01 4.8240166585923845e+00 0 0 0
28 2 3.7581754082882203e-02 9.6558823119252217e+00 3.2084484005416689e+00 0 0 0
40 2 7.9929049657081013e+00 1.1187186957385890e+01 4.8186085117362651e+00 0 0 0
81 2 6.4149654405812582e+00 1.9142528539352064e+01 6.3771080198553749e+00 0 -1 0
51 2 3.2615691642772848e+00 1.2796906538499510e+01 3.2290284081460361e+00 0 0 0
482 1 8.5576022011609698e+00 1.4922797666831778e+01 7.4614174250316481e+00 0 0 0
53 2 1.6215125121554965e+00 1.4359115485258318e+01 1.6218913618424062e+00 0 0 0
54 2 4.7763344687211262e+00 1.7620115817853094e+01 1.5739379188691236e+00 0 0 0
55 2 4.8567310968290185e+00 1.4428938526710121e+01 4.7861846967241206e+00 0 0 0
56 2 1.5995979691351960e+00 1.7589999710003489e+01 4.7577968906904511e+00 0 0 0
73 2 1.6479951442031189e-02 1.9172982783041341e+01 6.4064878366743949e+00 0 -1 0
59 2 9.5760147001170584e+00 1.2794595690284028e+01 3.2191638703893197e+00 0 0 0
60 2 6.4043215727459417e+00 1.6044900447158032e+01 3.1353417388152804e+00 0 0 0
61 2 8.0285173960089242e+00 1.4425004931866818e+01 1.6035734608296695e+00 0 0 0
64 2 8.0250339322599746e+00 1.7580293780974955e+01 4.7743272552647120e+00 0 0 0
479 1 6.9480018585240879e+00 1.5402045196815120e+01 9.0645651872113877e+00 0 0 0
102 2 4.7919740769573780e+00 1.1200461492335727e+01 7.9650698409871366e+00 0 0 0
481 1 7.4390942064516743e+00 1.3835098574335703e+01 7.4370986868981603e+00 0 0 0
122 2 3.1945241216834224e+00 1.5993533441778435e+01 6.3660965348520184e+00 0 0 0
123 2 3.1797375851162224e+00 1.2771910817858885e+01 9.5515941386327956e+00 0 0 0
478 1 9.0081706641905903e+00 1.3292969439621386e+01 9.0331332807494551e+00 0 0 0
125 2 1.5945494107654012e+00 1.4404024121903568e+01 7.9813017157034505e+00 0 0 0
126 2 4.8198743745574131e+00 1.7565814918704749e+01 7.9725482273673656e+00 0 0 0
129 2 6.4113388824002868e+00 1.2832346321121156e+01 6.4025943008064949e+00 0 0 0
130 2 9.5782603484018054e+00 1.5961454513652683e+01 6.4171004602993813e+00 0 0 0
474 1 5.8771069211189619e+00 1.3388656397523762e+01 5.7984259020913909e+00 0 0 0
133 2 8.0001750370902016e+00 1.4364836528280346e+01 8.0414426787919311e+00 0 0 0
221 1 3.7675201344321536e+00 1.8629308572593196e+01 2.6477226332378563e+00 0 0 0
222 1 2.6503144309220041e+00 1.8605690989036560e+01 3.7419440692885084e+00 0 0 0
238 1 9.0483350557582209e+00 1.8655927184114798e+01 3.7629007660858971e+00 0 0 0
267 1 3.7940585049565749e+00 1.0160644463410071e+01 6.1424432656781736e-01 0 0 0
275 1 5.3757869282807933e+00 1.0595301015182780e+01 2.2549047167645773e+00 0 0 0
276 1 4.2855747005380147e+00 1.1718384128554737e+01 2.2412060192969800e+00 0 0 0
279 1 1.0295449287484544e+00 1.1795425121734169e+01 5.3693284033394031e+00 0 0 0
280 1 1.0518642762608923e+00 1.0691017332435170e+01 4.2673626997956733e+00 0 0 0
295 1 8.5370048688479763e+00 1.0612848120462626e+01 5.3939355822175257e+00 0 0 0
296 1 7.4448419824657783e+00 1.0578042557193134e+01 4.2814975841113316e+00 0 0 0
313 1 5.8345212867883245e-01 1.3338615258099498e+01 5.7967781408527819e-01 0 0 0
315 1 3.7480111462614030e+00 1.6566680164857427e+01 5.6110660491820841e-01 0 0 0
317 1 2.6619203123593111e+00 1.2268360535547380e+01 3.7956279743411776e+00 0 0 0
318 1 2.6768344410234635e+00 1.3340538917633051e+01 2.6632648287008309e+00 0 0 0
321 1 1.0475179604906097e+00 1.4940835094362910e+01 2.1597126686336159e+00 0 0 0
322 1 2.1689809363876971e+00 1.4956726686700144e+01 1.0716347011925400e+00 0 0 0
323 1 5.3818061675322557e+00 1.7069329174957854e+01 2.1121968059553837e+00 0 0 0
324 1 5.3536294286102191e+00 1.8184468301514706e+01 1.0197855202242101e+00 0 0 0
325 1 4.2941828029138414e+00 1.3868883655629762e+01 4.2122182770377004e+00 0 0 0
326 1 5.3887450331655904e+00 1.4986628571873489e+01 4.1834603078133483e+00 0 0 0
327 1 2.1517199030661001e+00 1.7003927017889058e+01 5.3148568854616425e+00 0 0 0
328 1 1.0357447367306183e+00 1.7001350244026725e+01 4.2160198373726532e+00 0 0 0
329 1 5.8748960393164174e+00 1.2191610646647439e+01 6.3920482217559138e-01 0 0 0
332 1 9.0523168623007972e+00 1.5452956008576122e+01 5.5147485393455098e-01 0 0 0
334 1 9.0253082985222797e+00 1.2206095174974385e+01 3.7755617157267909e+00 0 0 0
335 1 6.9897232375461424e+00 1.6577862465700637e+01 3.7111072367076630e+00 0 0 0
336 1 6.9987915121960844e+00 1.5479226857918439e+01 2.6003685588875380e+00 0 0 0
337 1 8.5724393507246770e+00 1.3840672347373010e+01 2.1707634047165363e+00 0 0 0
338 1 7.4671058707804319e+00 1.3824985364856641e+01 1.0701441546915278e+00 0 0 0
343 1 8.5690585030511937e+00 1.7020168968027182e+01 5.3643362930481153e+00 0 0 0
344 1 7.4621130578428732e+00 1.8121629236341640e+01 5.3657152747439749e+00 0 0 0
361 1 5.6936501082535873e-01 1.8626090933346973e+01 5.8129718250797398e+00 0 0 0
377 1 5.8610586180343862e+00 1.8594183768488158e+01 6.9711723453770391e+00 0 0 0
411 1 2.6644007936822165e+00 1.0166613351761795e+01 5.8469131152970926e+00 0 0 0
412 1 3.7681953612562502e+00 1.0172411784816287e+01 6.9460124969369641e+00 0 0 0
419 1 5.3478315700390882e+00 1.1794117122184048e+01 7.4210211990720483e+00 0 0 0
420 1 4.2365767163460477e+00 1.1787171553220837e+01 8.5193644583623733e+00 0 0 0
432 1 5.7946281120689838e+00 1.0159751143759806e+01 9.0200252898494053e+00 0 0 0
458 1 5.2148475254827298e-01 1.3386454917476470e+01 6.9621048534237175e+00 0 0 0
459 1 3.7803851979822194e+00 1.6546636715891779e+01 6.9219017591941947e+00 0 0 0
460 1 3.7939431048477141e+00 1.5444949277002099e+01 5.8206311868635909e+00 0 0 0
461 1 2.6293759946736670e+00 1.3371727158918604e+01 9.0064525869441621e+00 0 0 0
465 1 1.0618325972749327e+00 1.5006780709970338e+01 8.5387242126648424e+00 0 0 0
466 1 2.1504701059569240e+00 1.4977681897106519e+01 7.4154939074156978e+00 0 0 0
467 1 5.3621771169067820e+00 1.7004215371437382e+01 8.5640291358879423e+00 0 0 0
468 1 4.2554602447042784e+00 1.8104789455945909e+01 8.5641601191481289e+00 0 0 0
473 1 6.9551513320968237e+00 1.2257222848279376e+01 5.8275093213412497e+00 0 0 0
50 2 3.1917257708510944e+00 1.5961830537498464e+01 2.8747971446569549e-02 0 0 0
57 2 6.4175095686422647e+00 1.2783630693911457e+01 7.9816567792112228e-02 0 0 0
124 2 3.7248613039717549e-02 1.6040759263052454e+01 9.5816276809235710e+00 0 0 0
104 2 1.5629354319435604e+00 1.1185191306000910e+01 1.1153983502592435e+01 0 0 0
112 2 7.9495705436118964e+00 1.1160698265560255e+01 1.1230671740647894e+01 0 0 0
127 2 4.7431641539220601e+00 1.4357685137506012e+01 1.1184346255702764e+01 0 0 0
128 2 1.5933757533970192e+00 1.7586356290833908e+01 1.1238646571830300e+01 0 0 0
625 1 7.3807410608345583e+00 1.3799089068882747e+01 1.3870401196129921e+01 0 0 0
136 2 7.9835353968436857e+00 1.7565848259334690e+01 1.1160834934704599e+01 0 0 0
626 1 8.4839903551556723e+00 1.3784510234875167e+01 1.4976076678006947e+01 0 0 0
174 2 4.7926835951546893e+00 1.1177793802677842e+01 1.4417428704954643e+01 0 0 0
176 2 1.6043491929741489e+00 1.1212450199303778e+01 1.7654722535831372e+01 0 0 0
184 2 7.9540477842873285e+00 1.1156399796547081e+01 1.7654237028932126e+01 0 0 0
193 2 4.6452116774537248e-02 1.2780867161873788e+01 1.2815848007652731e+01 0 0 0
194 2 3.1950343267896240e+00 1.5995688914598665e+01 1.2820084198874936e+01 0 0 0
195 2 3.2159217201801118e+00 1.2767647940206547e+01 1.6047999619723836e+01 0 0 0
196 2 -2.5292617625064752e-03 1.6001991375306652e+01 1.6013246478969862e+01 0 0 0
197 2 1.6105154914573752e+00 1.4388694624203255e+01 1.4456664486641490e+01 0 0 0
198 2 4.8237959474731413e+00 1.7562885305265056e+01 1.4411968279324070e+01 0 0 0
199 2 4.8282759180937891e+00 1.4349547707775526e+01 1.7654938949484023e+01 0 0 0
200 2 1.6140003222835764e+00 1.7565574780862033e+01 1.7632960675611528e+01 0 0 0
201 2 6.3552009557239346e+00 1.2763516136086276e+01 1.2810774415362609e+01 0 0 0
632 1 7.4494313793647189e+00 1.7053425201595772e+01 1.7080821312028394e+01 0 0 0
631 1 8.5529760363885945e+00 1.8157406045886511e+01 1.7054867179176689e+01 0 0 0
204 2 6.3963202068537504e+00 1.5999583875096006e+01 1.6063504444307153e+01 0 0 0
205 2 7.9238517699290796e+00 1.4381446909197702e+01 1.4438976282191458e+01 0 0 0
208 2 8.0051425949787802e+00 1.7614601638168345e+01 1.7658347139168161e+01 0 0 0
217 1 5.5614356291477141e-01 1.8594845995106613e+01 1.8660469474801250e+01 0 0 0
233 1 6.9670998060094087e+00 1.8677305048486655e+01 1.8655949474784649e+01 0 0 0
284 1 8.9881524083715512e+00 1.0105166002531693e+01 1.8657411276623513e+01 0 0 0
314 1 5.8750043462118362e-01 1.2230006515357674e+01 1.8690708103003214e+01 0 0 0
316 1 2.6524584788419521e+00 1.6531335661309921e+01 1.8671755793442351e+01 0 0 0
330 1 6.9504766613977731e+00 1.2186586030734475e+01 1.8722894442324939e+01 0 0 0
331 1 9.0540975522361347e+00 1.6557195109780984e+01 1.8671016026408878e+01 0 0 0
365 1 2.6452330744134098e+00 1.8587715679364603e+01 1.0182434459560199e+01 0 0 0
381 1 9.0218040061733262e+00 1.8591595031763614e+01 1.0129392666227490e+01 0 0 0
423 1 2.1279876287635853e+00 1.1730585934620896e+01 1.0570029490574811e+01 0 0 0
424 1 1.0158148982846682e+00 1.0634936498510411e+01 1.0557454819588997e+01 0 0 0
439 1 8.5070031447432601e+00 1.1707408387460877e+01 1.0638584011444497e+01 0 0 0
440 1 7.3898831719179805e+00 1.0613690830349988e+01 1.0641415326715979e+01 0 0 0
462 1 3.7167854084716798e+00 1.3353302912897991e+01 1.0128763044036152e+01 0 0 0
464 1 5.8405935690419541e-01 1.6582283559663317e+01 1.0188507757642686e+01 0 0 0
469 1 4.2101393273731977e+00 1.4948276032597565e+01 1.1753500418045363e+01 0 0 0
470 1 5.3081133534292793e+00 1.4945970747180253e+01 1.0642382960999401e+01 0 0 0
471 1 1.0380460549718225e+00 1.8135921744395869e+01 1.1827559468852712e+01 0 0 0
472 1 2.1483994634501924e+00 1.7035924422431496e+01 1.1829057757627439e+01 0 0 0
480 1 6.9538490614070936e+00 1.6514522708037443e+01 1.0158916597573601e+01 0 0 0
487 1 7.4276860901783044e+00 1.8117451775206337e+01 1.1748695309269678e+01 0 0 0
488 1 8.5269411585905459e+00 1.7013232975449021e+01 1.1759614427788510e+01 0 0 0
521 1 5.8552461681071213e+00 1.8591908089867996e+01 1.3386517250011883e+01 0 0 0
556 1 2.5649875609142883e+00 1.0157828440860428e+01 1.2236087427930972e+01 0 0 0
560 1 5.5186387108255786e-01 1.0172296476111944e+01 1.6643349223392882e+01 0 0 0
563 1 4.2101779645846609e+00 1.0645018225810590e+01 1.3839328889327829e+01 0 0 0
564 1 5.3352667638391589e+00 1.1729627375111630e+01 1.3816086712785898e+01 0 0 0
567 1 2.1977706137630415e+00 1.1752767622715581e+01 1.7093111456919797e+01 0 0 0
568 1 2.1936036267544043e+00 1.0658698600001859e+01 1.8206728428507084e+01 0 0 0
572 1 8.9961086483922212e+00 1.0134329019710025e+01 1.2253620876827830e+01 0 0 0
576 1 5.8206289141100394e+00 1.0149337548240030e+01 1.5425224467612269e+01 0 0 0
583 1 7.3917935688354612e+00 1.0621284673526048e+01 1.7056070118849533e+01 0 0 0
584 1 8.5015541912916337e+00 1.1718489094788895e+01 1.7069118191545329e+01 0 0 0
601 1 5.7584640272742837e-01 1.2229437170744331e+01 1.2203433395815708e+01 0 0 0
603 1 3.7634757599782591e+00 1.6537090399942798e+01 1.3405378699799275e+01 0 0 0
604 1 2.6552849013228248e+00 1.5435354130604491e+01 1.3413396289541714e+01 0 0 0
605 1 3.8012000510859769e+00 1.2220588603664531e+01 1.5486069380740016e+01 0 0 0
606 1 3.8069770069588014e+00 1.3318306009613433e+01 1.6601176522976761e+01 0 0 0
608 1 5.5023684045833998e-01 1.5409641378757147e+01 1.5463283327696516e+01 0 0 0
609 1 2.1636029188626478e+00 1.3799863451285217e+01 1.5007935425082200e+01 0 0 0
610 1 1.0798980204606436e+00 1.3800448252749364e+01 1.3882795581206191e+01 0 0 0
611 1 4.2675872865000501e+00 1.8122452556874698e+01 1.4992581361766337e+01 0 0 0
612 1 5.3655300081171786e+00 1.7011350477172510e+01 1.5013142657864272e+01 0 0 0
613 1 5.3715113291605618e+00 1.3803791975287256e+01 1.8258349028042502e+01 0 0 0
614 1 4.2618055233275527e+00 1.4901558742006785e+01 1.8230372012384588e+01 0 0 0
615 1 1.0575680524678868e+00 1.7011717264256536e+01 1.7047933771994963e+01 0 0 0
616 1 2.1619139984397271e+00 1.8115227156725329e+01 1.7036322086935709e+01 0 0 0
617 1 5.8061600510533316e+00 1.3317937393328560e+01 1.2220527088589659e+01 0 0 0
618 1 6.9132914791651841e+00 1.2213354207560737e+01 1.2223256679377943e+01 0 0 0
620 1 8.9715626984732335e+00 1.5430372202541781e+01 1.3406440292055908e+01 0 0 0
623 1 6.9259740809319954e+00 1.5401084916987937e+01 1.5497485869019490e+01 0 0 0
624 1 5.8565498191912084e+00 1.5414033108563423e+01 1.6632253754693696e+01 0 0 0
132 2 6.3596970586279467e+00 1.5960123198461380e+01 9.6122515801169399e+00 0 0 0
180 2 6.3697845736996843e+00 9.6053906810706504e+00 1.6027370705575368e+01 0 0 0
178 2 9.5541316522853830e+00 9.5862557311897234e+00 1.2842492311437290e+01 0 0 0
75 2 3.2340685530705748e+00 1.9125189544678083e+01 9.6154689996081988e+00 0 -1 0
170 2 3.1513128757088062e+00 9.6187000313169015e+00 1.2803996847574361e+01 0 0 0
202 2 9.5216968871957111e+00 1.5972905899811142e+01 1.2806571635661799e+01 0 0 0
203 2 9.5201597586055229e+00 1.2754809815852617e+01 1.6005215642747892e+01 0 0 0
147 2 3.2059811809480143e+00 1.9135350842982199e+01 1.5998430330516042e+01 0 0 0
153 2 6.3999088236255828e+00 1.9142247442920048e+01 1.2786584147307680e+01 0 -1 0
131 2 9.5476706338577166e+00 1.2735247251044068e+01 9.6315002874090450e+00 0 0 0
108 2 6.3293351655973336e+00 9.6010265953143588e+00 9.6197859114536559e+00 0 0 0
450 1 1.4982350418749061e+01 7.4565067707999386e+00 8.5867999052105208e+00 0 0 0
44 2 1.2739902619179530e+01 9.5154063308599337e+00 3.1877625860975884e+00 0 0 0
14 2 1.1198063881772752e+01 4.8393587002251204e+00 1.5789162656528855e+00 0 0 0
15 2 1.1197796566563973e+01 1.6559344444306880e+00 4.8281689939742440e+00 0 0 0
18 2 1.5989629661983896e+01 3.2111740057639628e+00 3.6043997936282234e-02 0 0 0
441 1 1.2236235644446429e+01 6.9719792989757776e+00 5.9025422762985924e+00 0 0 0
20 2 1.2792488364923166e+01 3.2119820322841135e+00 3.1660799467923972e+00 0 0 0
21 2 1.4357048253838025e+01 1.5862746913628463e+00 1.5835180690936326e+00 0 0 0
22 2 1.7588974300996533e+01 4.8284538288727887e+00 1.6257291320656582e+00 0 0 0
23 2 1.7597303538315405e+01 1.5531111092114036e+00 4.7751173493723700e+00 0 0 0
24 2 1.4348332634765013e+01 4.8004670747351010e+00 4.8070149398585844e+00 0 0 0
449 1 1.4985228720090070e+01 8.5649549399485085e+00 7.4833890498594684e+00 0 0 0
39 2 1.1177830079084941e+01 7.9583283978468611e+00 4.8514868611396542e+00 0 0 0
427 1 1.0137154621043209e+01 8.9984146487205265e+00 5.8895779970912665e+00 0 0 0
43 2 1.5978281564131287e+01 6.4076621210104250e+00 3.2349090304494617e+00 0 0 0
107 2 9.6085368289008635e+00 6.4287547202315327e+00 9.5981080839803070e+00 0 0 0
45 2 1.4414903011132179e+01 7.9840489022513230e+00 1.5837726639045484e+00 0 0 0
47 2 1.7598130297586025e+01 8.0365004526913122e+00 4.7656753455253407e+00 0 0 0
447 1 1.3394682148930132e+01 9.0536157211707078e+00 9.0969472099812130e+00 0 0 0
86 2 1.1208088543767396e+01 4.7749104309231960e+00 8.0422684556560906e+00 0 0 0
90 2 1.5994406964271267e+01 3.1665940797233110e+00 6.3340203882174739e+00 0 0 0
443 1 1.6551532537000011e+01 9.0390145241169204e+00 5.8203219532223196e+00 0 0 0
442 1 1.3345799248665935e+01 6.9930424123898218e+00 7.0066688990951382e+00 0 0 0
93 2 1.4374671720469275e+01 1.6462194863321005e+00 7.9839106071094852e+00 0 0 0
94 2 1.7568737694476521e+01 4.7591314379371337e+00 7.9803691301898985e+00 0 0 0
97 2 1.9134255162409822e+01 6.3684989921495641e+00 6.3490199096577769e+00 0 0 0
113 2 1.2796806033908029e+01 6.3950002714699163e+00 6.4607244630643423e+00 0 0 0
76 2 1.9154556912960746e+01 3.1522935729163981e+00 9.5940391900100472e+00 -1 0 0
446 1 1.6547926766884775e+01 5.7943406093604297e+00 9.0322706152591756e+00 0 0 0
11 2 9.5960544705402739e+00 6.9843738196955760e-02 3.2017917559898605e+00 0 0 0
117 2 1.4395580808588948e+01 8.0278899788224045e+00 8.0517376478285101e+00 0 0 0
223 1 1.8622084948243160e+01 2.5967322383086273e+00 3.7399481832257488e+00 0 0 0
243 1 1.0617315833067170e+01 4.2815954019264995e+00 1.0218374089511442e+00 0 0 0
244 1 1.0599596452960942e+01 5.3643468430027301e+00 2.1496417370250316e+00 0 0 0
245 1 1.0645037836702780e+01 1.0987302678524906e+00 4.2435895408060542e+00 0 0 0
246 1 1.1748013402511312e+01 2.2002777576877959e+00 4.2298340984799498e+00 0 0 0
250 1 1.3313061307033641e+01 5.7631873760413865e-01 5.5071218721157500e-01 0 0 0
253 1 1.5381713877358694e+01 5.4053527756791386e-01 2.6260883271186453e+00 0 0 0
255 1 1.3328760279143426e+01 3.8032078541529053e+00 3.7335499315908574e+00 0 0 0
256 1 1.2238585485102176e+01 3.8000738936971761e+00 2.6140678801718606e+00 0 0 0