LAMMPS data file via write_data, version 5 Jun 2019, timestep = 0

4500 atoms
2 atom types

0.0000000000000000e+00 3.1485984570610100e+01 xlo xhi
0.0000000000000000e+00 3.1478079568433099e+01 ylo yhi
0.0000000000000000e+00 3.5131321393913403e+01 zlo zhi
5.9157431945521297e-02 -4.1436005845018400e-02 -1.5377944829302100e-02 xy xz yz

Masses

1 1.008
2 15.9994

Atoms # atomic

1 2 1.7289240701992098e-01 1.5889534949823454e+00 1.9717773607950075e+00 0 0 0
2 1 1.1454278652469478e+00 1.6469928709158337e+00 2.0149793300350058e+00 0 0 0
4 2 1.6390731965008831e+00 2.5584106127995408e-02 5.2076183025901583e+00 0 0 0
5 1 1.5768617065370125e+00 9.9929613314444965e-01 5.2163693468996337e+00 0 0 0
7 2 1.5140571744847189e+00 2.8390466674001478e+00 5.2311710874555217e+00 0 0 0
8 1 2.2787447294489089e+00 3.1987874413728097e+00 4.7513516574377679e+00 0 0 0
9 1 7.6440306659859114e-01 3.2548033773570704e+00 4.7699297648558820e+00 0 0 0
10 2 1.5012286067670908e+00 4.7548158168723660e+00 1.5452312013036591e+00 0 0 0
11 1 2.2603537823670581e+00 4.6322710222586982e+00 2.1432240185360607e+00 0 0 0
12 1 1.5322039616689769e+00 4.0044029923660194e+00 9.2692935787632125e-01 0 0 0
13 2 2.9849261801716986e+00 1.7186918816194294e+00 2.0762948821072849e+00 0 0 0
14 1 3.4286595600440792e+00 1.6959586421697244e+00 2.9443414050247751e+00 0 0 0
15 1 3.3566925326925143e+00 9.6343676539736556e-01 1.5849180792169173e+00 0 0 0
16 2 3.3032956490755327e+00 4.5036154388428260e+00 3.6561076436001736e+00 0 0 0
17 1 4.2754321957933934e+00 4.5818576747024657e+00 3.6477173355059791e+00 0 0 0
18 1 2.9544763995315200e+00 5.2815754172740501e+00 4.1240553916605789e+00 0 0 0
19 2 4.6785106277411117e+00 1.5868523433133350e+00 4.3435230250075243e+00 0 0 0
20 1 4.7603928081009901e+00 2.3123186047658955e+00 4.9879374320056211e+00 0 0 0
21 1 4.6321956604588319e+00 8.0940014136704796e-01 4.9261841913055830e+00 0 0 0
22 2 4.8493122915843792e+00 3.3859851398641414e+00 8.0264902375149205e-01 0 0 0
23 1 4.0961934945422511e+00 2.9667885957463476e+00 1.2618080034262102e+00 0 0 0
25 2 4.7846719233834021e+00 6.1692287926888936e+00 9.7670640150482890e-01 0 0 0
26 1 4.8121235497630730e+00 5.1954598156183378e+00 9.2505763324608548e-01 0 0 0
27 1 4.7393215599484879e+00 6.4948211139557790e+00 6.2472771809790779e-02 0 0 0
28 2 6.1020012803804748e+00 4.6642679794305595e+00 3.5928570636200443e+00 0 0 0
29 1 6.5595084745336694e+00 3.9368947123199498e+00 4.0576323886537589e+00 0 0 0
30 1 6.4342822602199288e+00 5.4424855950743298e+00 4.0719961316655766e+00 0 0 0
31 2 2.2562789365939404e-01 1.5199662911794085e+00 7.9951674354176054e+00 0 0 0
40 2 1.4890727684914833e+00 4.8688651044250788e+00 7.3881417348368901e+00 0 0 0
41 1 1.5010354384280598e+00 4.0539692123404230e+00 6.8640379872171096e+00 0 0 0
42 1 2.2342661723545665e+00 4.8336612173569504e+00 8.0160988812315939e+00 0 0 0
43 2 3.0353166298192549e+00 1.6195583941172185e+00 8.0690101764661470e+00 0 0 0
44 1 2.0615545367546408e+00 1.5860218917911018e+00 8.0505578185834139e+00 0 0 0
45 1 3.3496955300445981e+00 8.8559572898919636e-01 7.5150138378316047e+00 0 0 0
52 2 4.8884991768276018e+00 3.2155775153441102e+00 6.6217836777886809e+00 0 0 0
53 1 4.1173864941120177e+00 2.9083717114386061e+00 7.1272313279948882e+00 0 0 0
54 1 4.9072498772530952e+00 4.1883190975813092e+00 6.6748481046840160e+00 0 0 0
55 2 4.9070849282196347e+00 6.0443575784887171e+00 6.7227396173065435e+00 0 0 0
56 1 4.9218722021141676e+00 6.5148952326539424e+00 5.8694781937727285e+00 0 0 0
57 1 4.1283266033840516e+00 6.4157193820308711e+00 7.1712171898830084e+00 0 0 0
181 2 1.1190474367747391e-01 7.9991079036070261e+00 2.3129284717684722e+00 0 0 0
182 1 1.0813121624975814e+00 7.9023104259433206e+00 2.3026572855376974e+00 0 0 0
184 2 1.6357329564189191e+00 6.3679550466578378e+00 4.9984690598150054e+00 0 0 0
185 1 1.6111054914264118e+00 6.0711737627160201e+00 5.9240272548807393e+00 0 0 0
186 1 1.6310685955764348e+00 7.3406842884779664e+00 5.0194499031971320e+00 0 0 0
187 2 1.6224934517459377e+00 9.1984332297897335e+00 5.1478965389649494e+00 0 0 0
188 1 2.3691022468509479e+00 9.5952203463084995e+00 4.6636937899454542e+00 0 0 0
189 1 8.6724545686158072e-01 9.5882193764857018e+00 4.6724190630742743e+00 0 0 0
190 2 1.5661305606016667e+00 1.0927031427980069e+01 1.5125454694091582e+00 0 0 0
191 1 1.5489618127344933e+00 1.0213019820315973e+01 8.4462239800535088e-01 0 0 0
192 1 1.6199907733577690e+00 1.1719599679581309e+01 9.5522850844313101e-01 0 0 0
193 2 2.9336139496726461e+00 7.8531121676735056e+00 2.2993302285057138e+00 0 0 0
194 1 3.3791240800498850e+00 7.0896501391645232e+00 1.8902154542966625e+00 0 0 0
195 1 3.3064128004595799e+00 8.5949768054227533e+00 1.7929123589819167e+00 0 0 0
196 2 3.3452132452338481e+00 1.0925205089287163e+01 3.6698400687637598e+00 0 0 0
197 1 2.8717792988709858e+00 1.0889012407449567e+01 2.8168487768426749e+00 0 0 0
198 1 2.9336841331494647e+00 1.1683302198579030e+01 4.1218103602979026e+00 0 0 0
199 2 4.7905018316469565e+00 7.8411091395114036e+00 4.5067292973797040e+00 0 0 0
200 1 4.0115913672210368e+00 7.8569705139536827e+00 3.9281109863041177e+00 0 0 0
201 1 5.5151580359693053e+00 7.9329504989486175e+00 3.8611846706176389e+00 0 0 0
202 2 4.6103303253920700e+00 9.5694187341377575e+00 7.3086601170291576e-01 0 0 0
203 1 4.6280515815902756e+00 1.0544194903893901e+01 7.3531118284611652e-01 0 0 0
204 1 5.3594737076528816e+00 9.2717271847736367e+00 1.2749495385693059e+00 0 0 0
205 2 4.6514215983912273e+00 1.2387520180352849e+01 7.7557732320777595e-01 0 0 0
3810 1 2.8266114108163254e-01 1.1686025025671787e+01 4.1390023420451794e+00 1 0 0
207 1 5.3766220798258724e+00 1.2777874309726867e+01 1.2948006101040490e+00 0 0 0
208 2 6.1477054446875528e+00 1.0900525682895042e+01 3.5701202149096871e+00 0 0 0
209 1 5.1717456545705200e+00 1.0930321221986082e+01 3.5884066031481390e+00 0 0 0
210 1 6.4604207653244909e+00 1.1685779944833314e+01 4.0488273299947428e+00 0 0 0
211 2 1.4493832257427305e-01 7.9884881432842061e+00 8.1667235140692167e+00 0 0 0
212 1 1.1144914025770245e+00 7.8993237209184137e+00 8.1170790440946767e+00 0 0 0
220 2 1.6852112745591439e+00 1.1119048340792673e+01 7.3059783293977700e+00 0 0 0
221 1 1.6516052685305582e+00 1.0339670787541570e+01 6.7274153758091808e+00 0 0 0
222 1 9.0866547903549910e-01 1.1057130091935974e+01 7.8885448333557280e+00 0 0 0
223 2 2.9477769473731819e+00 7.7246816465678902e+00 8.0052581638264346e+00 0 0 0
3809 1 3.3776861046463963e-01 1.0890001937537656e+01 2.8380075659492143e+00 1 0 0
225 1 3.3920776277380389e+00 8.4723677750596611e+00 7.5646259916834380e+00 0 0 0
228 1 2.9686591683000700e+00 1.1113503683529069e+01 8.6648133795593818e+00 0 0 0
232 2 4.7376866944631963e+00 9.5161896382323636e+00 6.7619080356503529e+00 0 0 0
233 1 4.7678636796245080e+00 9.1592374103664085e+00 5.8575553659272535e+00 0 0 0
234 1 4.7278693034407873e+00 1.0488142252911379e+01 6.7032334536973037e+00 0 0 0
235 2 4.7983093325092243e+00 1.2351180449236148e+01 6.7060106689376244e+00 0 0 0
236 1 4.8143624925333448e+00 1.2774116339840011e+01 5.8303510522739410e+00 0 0 0
237 1 4.0431145012528802e+00 1.2782047857230843e+01 7.1448660060560352e+00 0 0 0
335 1 1.6538436712974458e+00 6.0918862219039092e+00 1.5098295162997910e-01 0 0 1
361 2 1.0672481703513871e-01 1.4037500470545089e+01 2.2389205943785604e+00 0 0 0
362 1 1.0795063481119260e+00 1.4072222116132137e+01 2.1929213154707283e+00 0 0 0
364 2 1.5940970616678134e+00 1.2747249240136711e+01 4.9703325172428547e+00 0 0 0
365 1 1.6173658081826923e+00 1.2425243442624785e+01 5.8862073384082612e+00 0 0 0
366 1 1.5739449115317319e+00 1.3721717221376032e+01 5.0124606813096717e+00 0 0 0
367 2 1.4582261904949751e+00 1.5540371519183980e+01 5.0489442927882253e+00 0 0 0
373 2 2.9089335226488116e+00 1.4189678399922338e+01 2.1331812851061200e+00 0 0 0
374 1 3.3358224821755464e+00 1.3463030993638698e+01 1.6443290944069839e+00 0 0 0
375 1 3.3356666544599580e+00 1.4160595561443783e+01 3.0067269405275066e+00 0 0 0
379 2 4.6721042456705231e+00 1.4048427663308376e+01 4.4109749127183235e+00 0 0 0
380 1 4.7458926490331628e+00 1.4813867887686216e+01 5.0070621970136422e+00 0 0 0
381 1 5.4320152627152778e+00 1.4098142605729933e+01 3.8024887706886710e+00 0 0 0
383 1 4.0170449829109760e+00 1.5556901547570238e+01 1.2036710549160752e+00 0 0 0
391 2 1.8021164923128241e-01 1.4183123697374954e+01 8.1409412611482121e+00 0 0 0
403 2 3.0105830692389808e+00 1.4149443870388305e+01 7.9647044505233717e+00 0 0 0
404 1 2.0392101254336152e+00 1.4145558990018081e+01 8.0266217526002368e+00 0 0 0
3630 1 2.4188641706060729e-01 5.3296215607037229e+00 4.2303323942159334e+00 1 0 0
413 1 4.0300470873619467e+00 1.5520552546031560e+01 7.0599689534127945e+00 0 0 0
747 1 5.3797335594906448e+00 1.8819516363144850e-01 1.1918882993299327e+00 0 1 0
777 1 5.3919672577679174e+00 1.3518380361031493e-01 7.0015767457210654e+00 0 1 0
901 2 6.4591300645551453e+00 1.5128270707639659e+00 2.1736370814742636e+00 0 0 0
902 1 5.9934513203452688e+00 1.5271362241830737e+00 3.0304896355329025e+00 0 0 0
903 1 6.0626590614128917e+00 2.2599836048898641e+00 1.6898951241580213e+00 0 0 0
904 2 7.8253808202003574e+00 2.0896373052674647e-01 5.2440688417284838e+00 0 0 0
907 2 7.8437621271518747e+00 3.0143968531737304e+00 5.0162646376077564e+00 0 0 0
908 1 7.8074461918459059e+00 2.0421795986958311e+00 5.0835954462120174e+00 0 0 0
909 1 7.7648595961175593e+00 3.3546813408150027e+00 5.9228015574253750e+00 0 0 0
910 2 8.0385745737714434e+00 4.6510710978287433e+00 1.4505328068229524e+00 0 0 0
911 1 7.2480129176885741e+00 4.6729745911730349e+00 2.0159912850457928e+00 0 0 0
912 1 7.9834584182163271e+00 5.4274059012404336e+00 8.6464815677480245e-01 0 0 0
913 2 9.2467353890786566e+00 1.6775745314014452e+00 2.2183339530823294e+00 0 0 0
914 1 8.2712435342716368e+00 1.6378795779281567e+00 2.2289164760086715e+00 0 0 0
915 1 9.5428120111590751e+00 9.0084349556742549e-01 1.7197130575517516e+00 0 0 0
916 2 9.6683124346034646e+00 4.7331776579366434e+00 3.7758927098047810e+00 0 0 0
917 1 9.1905630908320557e+00 4.0133259126630412e+00 4.2278795512655947e+00 0 0 0
918 1 9.2725004967089308e+00 4.7349498435721502e+00 2.8874548944762743e+00 0 0 0
919 2 1.1063644138474830e+01 1.4856796344369256e+00 4.3404845100745986e+00 0 0 0
920 1 1.0308658892508191e+01 1.5619375812288483e+00 3.7266218264642199e+00 0 0 0
921 1 1.1006678652034203e+01 2.2564769323606395e+00 4.9301176590686966e+00 0 0 0
922 2 1.0971326483315563e+01 3.3359221263787768e+00 6.9801806027216029e-01 0 0 0
923 1 1.0208670073192993e+01 2.9853743221108946e+00 1.1920527523585749e+00 0 0 0
924 1 1.1718915626033240e+01 2.8853968267551520e+00 1.1339045356816768e+00 0 0 0
925 2 1.1118200314326788e+01 6.1224638764378021e+00 6.4844115414368708e-01 0 0 0
926 1 1.1045153790845802e+01 5.1491307850043695e+00 6.7299763000032753e-01 0 0 0
927 1 1.0354136154678992e+01 6.4654455984046395e+00 1.1392275247948573e+00 0 0 0
928 2 1.2481753619159328e+01 4.5839555361207154e+00 3.7030169954012000e+00 0 0 0
929 1 1.1507980655822722e+01 4.6200615323433150e+00 3.7480217156605509e+00 0 0 0
930 1 1.2814064570596964e+01 5.3149024285881961e+00 4.2522401672838326e+00 0 0 0
931 2 6.5943573526475543e+00 1.4102466602934993e+00 7.9606628660367331e+00 0 0 0
933 1 6.1764422772327086e+00 2.1535593405784739e+00 7.4887494615235832e+00 0 0 0
940 2 7.6703833119456153e+00 4.6076529908701591e+00 7.3525988969652838e+00 0 0 0
941 1 8.4620320994664286e+00 4.6331903835546013e+00 7.9179580549049620e+00 0 0 0
942 1 7.7100799222877718e+00 5.3621088519183102e+00 6.7371258175863389e+00 0 0 0
943 2 9.3668277457566855e+00 1.6620418129514880e+00 8.0599848573011013e+00 0 0 0
944 1 8.3948576522888700e+00 1.5714806743068557e+00 8.0197783558175963e+00 0 0 0
945 1 9.7358203894734174e+00 8.9841924144729313e-01 7.5842090453389615e+00 0 0 0
952 2 1.0992600087605613e+01 3.3640769727578737e+00 6.4981447391560820e+00 0 0 0
953 1 1.0263314498719097e+01 2.9620064720134485e+00 7.0044785781023657e+00 0 0 0
954 1 1.1771081084343994e+01 3.0056750768208369e+00 6.9586964535003810e+00 0 0 0
955 2 1.0894767247975203e+01 6.1491129215177471e+00 6.4295692333003327e+00 0 0 0
956 1 1.0931173299086423e+01 5.1737671349355701e+00 6.4388128157933311e+00 0 0 0
957 1 1.1671635140702676e+01 6.4501007374109403e+00 6.9273549334567335e+00 0 0 0
1081 2 6.4388803045260650e+00 8.0273335520125677e+00 2.2754461197976621e+00 0 0 0
1082 1 6.0729554310640754e+00 7.2551276323053076e+00 1.8086070865477570e+00 0 0 0
1083 1 7.4101596328901644e+00 7.9751169697516779e+00 2.1994075558500357e+00 0 0 0
1084 2 7.7435082151253960e+00 6.4062301275913018e+00 5.1973016068711777e+00 0 0 0
1085 1 8.5273983490735397e+00 6.0717154836144394e+00 4.7341728464251895e+00 0 0 0
1086 1 7.7923870496444074e+00 7.3792501192064472e+00 5.1270389122530498e+00 0 0 0
1087 2 7.9049396330347284e+00 9.1914299809943589e+00 4.9945032692574802e+00 0 0 0
1088 1 7.1778449863659555e+00 9.6126526464980895e+00 4.5018670450992246e+00 0 0 0
1089 1 7.8952219180130969e+00 9.6337211067901531e+00 5.8611475945550753e+00 0 0 0
1090 2 7.9209036890846525e+00 1.1049692707805411e+01 1.3639578249047497e+00 0 0 0
1091 1 7.1668279519773561e+00 1.0994786877878655e+01 1.9749508050095967e+00 0 0 0
1092 1 8.6751102225464916e+00 1.1065714491284632e+01 1.9819348612901579e+00 0 0 0
1093 2 9.2456023815257726e+00 7.8060998748436914e+00 2.0929047219963386e+00 0 0 0
1094 1 9.6516470878845784e+00 7.8324025064961482e+00 2.9774982574893598e+00 0 0 0
1095 1 9.6873605181943319e+00 8.5415966046407590e+00 1.6305495214237826e+00 0 0 0
1096 2 9.5974068672253061e+00 1.1093380513249555e+01 3.5734782810282879e+00 0 0 0
1097 1 9.2602391944529590e+00 1.0319491458438037e+01 4.0512538383274022e+00 0 0 0
1098 1 1.0569603475624559e+01 1.1024477184509605e+01 3.6128652366540739e+00 0 0 0
1099 2 1.0899929022512808e+01 7.9787932218909896e+00 4.3644965330077063e+00 0 0 0
1100 1 1.0923865575847270e+01 7.1910445027693495e+00 4.9415789787823314e+00 0 0 0
1101 1 1.1663509259995410e+01 7.9207954531984308e+00 3.7653953587892994e+00 0 0 0
1102 2 1.1041195237026800e+01 9.5821291498445902e+00 8.2762997114458969e-01 0 0 0
1103 1 1.0986860134930081e+01 1.0555091817139491e+01 7.9058272776683780e-01 0 0 0
1105 2 1.0863823844311257e+01 1.2382622412615206e+01 8.3067455483489117e-01 0 0 0
2012 1 1.2409671300970210e+01 7.7433903112656148e+00 8.7764810031359044e+00 0 0 0
1107 1 1.1624351490621770e+01 1.2735203491046589e+01 1.3262400950297757e+00 0 0 0
1108 2 1.2378343521248928e+01 1.0858637995220992e+01 3.7339473628689026e+00 0 0 0
1109 1 1.2807706320129151e+01 1.0854431260978592e+01 2.8603571685237972e+00 0 0 0
1110 1 1.2819009595449581e+01 1.1597758614217598e+01 4.1907379157616287e+00 0 0 0
1111 2 6.5391945232244568e+00 7.8462690272520170e+00 8.2035647626545618e+00 0 0 0
1112 1 6.1661088377953375e+00 7.0822150563118003e+00 7.7277875767245430e+00 0 0 0
1113 1 6.1083974873765259e+00 8.5921686601200484e+00 7.7464152868982703e+00 0 0 0
1120 2 7.9358293280145489e+00 1.0994709749654636e+01 7.2383317594581547e+00 0 0 0
1121 1 7.1651393083250818e+00 1.1068068169084762e+01 7.8265212470150507e+00 0 0 0
1122 1 7.8510844403697524e+00 1.1713812965677535e+01 6.5850259093401045e+00 0 0 0
1123 2 9.3290419153633959e+00 7.9634253258342795e+00 8.0433058969806535e+00 0 0 0
1124 1 9.6070934615679366e+00 7.2190911986669839e+00 7.4848684724063643e+00 0 0 0
1125 1 8.3545601072163382e+00 7.9347834781218154e+00 8.0964901287878863e+00 0 0 0
1128 1 9.2358203866132271e+00 1.1110723499568236e+01 8.6617518696892493e+00 0 0 0
1132 2 1.1106895625159218e+01 9.6581504134764469e+00 6.6104239191969540e+00 0 0 0
1133 1 1.1041772629088275e+01 9.2335830618653922e+00 5.7360662841828214e+00 0 0 0
1134 1 1.0368141149873969e+01 9.2736927408238579e+00 7.1145652209113059e+00 0 0 0
1135 2 1.0882147895815974e+01 1.2432783844310050e+01 6.5377978129053460e+00 0 0 0
1136 1 1.0938883840758729e+01 1.1458254194491369e+01 6.5397896351985088e+00 0 0 0
1137 1 1.1651471562295693e+01 1.2740946580019314e+01 7.0435892141878949e+00 0 0 0
1261 2 6.4044212388655097e+00 1.4101054673707711e+01 2.2524478289593834e+00 0 0 0
1262 1 6.0881915526135950e+00 1.4853876823503194e+01 1.7277375544105018e+00 0 0 0
1263 1 7.3785777640823262e+00 1.4155940163554886e+01 2.2473217552719866e+00 0 0 0
1264 2 7.7514778287829271e+00 1.2729240442183984e+01 5.0571916006137672e+00 0 0 0
1265 1 8.5199447692495127e+00 1.2425630164240788e+01 4.5473409154477507e+00 0 0 0
1266 1 7.7783917648435175e+00 1.3705357755376438e+01 5.0520347883013077e+00 0 0 0
1267 2 7.7540516827178561e+00 1.5523504841059848e+01 5.0905206340162303e+00 0 0 0
1273 2 9.2006752535770620e+00 1.4284797788733819e+01 2.2012819464765618e+00 0 0 0
1274 1 9.5760333737576744e+00 1.3511132882907223e+01 1.7461367355791582e+00 0 0 0
1275 1 9.6584688955611391e+00 1.4281240492031884e+01 3.0632007793198648e+00 0 0 0
1279 2 1.0913340782399633e+01 1.4236559641642300e+01 4.4052393385024491e+00 0 0 0
1280 1 1.0921760033517206e+01 1.3469825511629118e+01 5.0085416560408476e+00 0 0 0
1281 1 1.1684585076675262e+01 1.4141476697858865e+01 3.8168224646681033e+00 0 0 0
1283 1 1.0358436320736045e+01 1.5533996711597213e+01 1.2473407142071293e+00 0 0 0
1291 2 6.4665989025200892e+00 1.4207718282966800e+01 8.1448453605501605e+00 0 0 0
1292 1 6.0867327894796341e+00 1.3429239709875741e+01 7.7029761222096251e+00 0 0 0
1293 1 6.0677030977940811e+00 1.4941092688944526e+01 7.6449453845336199e+00 0 0 0
1303 2 9.2742283625870439e+00 1.4256396408994583e+01 8.0297006828764879e+00 0 0 0
1304 1 9.5606910055722807e+00 1.3487731314721495e+01 7.5089400180570811e+00 0 0 0
1305 1 8.2987069849748760e+00 1.4245244508955020e+01 8.0483272098185132e+00 0 0 0
1313 1 1.1033794887204888e+01 1.5546923233855837e+01 5.7583099464133012e+00 0 0 0
1314 1 1.0316305269948220e+01 1.5563466310063612e+01 7.1136834560840088e+00 0 0 0
1416 1 7.9820382065944964e+00 1.2332646210944775e+01 4.7756476456492850e-02 0 0 1
3629 1 1.9167514895257640e-01 4.5652759488201013e+00 2.9174539455085338e+00 1 0 0
1647 1 1.1599958795652260e+01 1.5664829023373864e-01 1.2200286997335201e+00 0 1 0
1676 1 1.1044131910943692e+01 2.0872051799495467e-01 5.7401357281243142e+00 0 1 0
1801 2 1.2666227896539041e+01 1.5226724578764932e+00 2.0238520681497221e+00 0 0 0
1802 1 1.2328724449946384e+01 1.5425612764568337e+00 2.9345294147708114e+00 0 0 0
1803 1 1.3638117823592374e+01 1.5535394111210719e+00 2.0804710134280637e+00 0 0 0
1804 2 1.4253939333134458e+01 1.0867619823022365e-01 5.1652199323866972e+00 0 0 0
1806 1 1.4217070032866156e+01 1.0862339127354668e+00 5.1732016729845096e+00 0 0 0
1807 2 1.4132961138885465e+01 2.8697217377698823e+00 5.2353087993903333e+00 0 0 0
1808 1 1.3390060548680955e+01 3.2578799537120036e+00 4.7393349744330884e+00 0 0 0
1809 1 1.4893001587405161e+01 3.3151372138915103e+00 4.8142910095577482e+00 0 0 0
1810 2 1.4304354753252406e+01 4.5058952331896442e+00 1.5301260301150688e+00 0 0 0
1811 1 1.3536823001653262e+01 4.5471073826681616e+00 2.1265691789153629e+00 0 0 0
1812 1 1.4262756307764361e+01 5.2811323053297770e+00 9.4246940719661432e-01 0 0 0
1813 2 1.5486673748911995e+01 1.5657679243312037e+00 2.2196152458229950e+00 0 0 0
1817 1 1.5555641827172073e+01 4.5912382016072266e+00 2.9999558736533052e+00 0 0 0
1831 2 1.2840210663692957e+01 1.6997894269475564e+00 7.9281402399625840e+00 0 0 0
1833 1 1.2405430167653167e+01 9.5934778343282034e-01 7.4673217798622327e+00 0 0 0
1840 2 1.4064047607227806e+01 4.6772091284853330e+00 7.4798003109223066e+00 0 0 0
1841 1 1.4067155359650053e+01 3.8962145602724441e+00 6.9047239600455956e+00 0 0 0
1842 1 1.4066968662296986e+01 5.4120065930166508e+00 6.8390958651665654e+00 0 0 0
1843 2 1.5603008724885195e+01 1.6937629589788752e+00 8.0388182170908937e+00 0 0 0
1844 1 1.4628577263299405e+01 1.6770820505956978e+00 7.9790631786965545e+00 0 0 0
2316 1 1.4245467967314246e+01 1.2263154196040055e+01 9.5957979642502633e-02 0 0 1
1981 2 1.2776931854473906e+01 7.8828420678508957e+00 2.1793764285132808e+00 0 0 0
1982 1 1.2424280628082069e+01 7.1186237134952659e+00 1.6929229678239377e+00 0 0 0
1983 1 1.2338161734555868e+01 8.6256018824033784e+00 1.7232178541967569e+00 0 0 0
1984 2 1.4074412566752139e+01 6.3325623736514336e+00 5.2404313220308287e+00 0 0 0
1985 1 1.4839911851456749e+01 5.9485612045036556e+00 4.7787293170089242e+00 0 0 0
1986 1 1.4163149266219351e+01 7.3032461549342225e+00 5.2182147644977652e+00 0 0 0
1987 2 1.4186696145547545e+01 9.1215210103420503e+00 5.2142519076499587e+00 0 0 0
1988 1 1.3423842709951302e+01 9.4983289180477417e+00 4.7455146464769689e+00 0 0 0
1989 1 1.4934209557582834e+01 9.5223642893102571e+00 4.7319252527254800e+00 0 0 0
1990 2 1.4093920808873404e+01 1.0977541620988884e+01 1.4885748609090550e+00 0 0 0
1991 1 1.4844930226520818e+01 1.0888892051379901e+01 2.1046888343021055e+00 0 0 0
1992 1 1.4140429170964966e+01 1.0213218162974886e+01 8.8739015752422112e-01 0 0 0
1993 2 1.5601593361739258e+01 7.8863595495698915e+00 1.9865878115122702e+00 0 0 0
1994 1 1.4627700773093004e+01 7.8987393036416247e+00 2.0342603560718402e+00 0 0 0
1998 1 1.5488333336651884e+01 1.1600524250592537e+01 4.1533431740514333e+00 0 0 0
2011 2 1.2832477147327380e+01 7.7307878919272328e+00 7.9000745826963339e+00 0 0 0
2013 1 1.2430993993848904e+01 8.4884725635903262e+00 7.4418648792587554e+00 0 0 0
2020 2 1.4228422946860334e+01 1.1082153288036148e+01 7.3807498416166677e+00 0 0 0
2021 1 1.3461021716008741e+01 1.1024813870577214e+01 7.9817433541501721e+00 0 0 0
2022 1 1.4200247939597936e+01 1.0288542059360896e+01 6.8246967474174580e+00 0 0 0
2023 2 1.5635673430905213e+01 7.8103165430916608e+00 7.8235927781190506e+00 0 0 0
2024 1 1.4661510671647248e+01 7.7859081650600448e+00 7.8347589360104273e+00 0 0 0
2204 1 1.4597739064402289e+01 1.4000331613644189e+01 8.0067993355940512e+00 0 0 0
2161 2 1.2730899856008318e+01 1.4011009170575729e+01 2.2711803335821195e+00 0 0 0
2162 1 1.2440387641987071e+01 1.4776260505933886e+01 1.7506552175557313e+00 0 0 0
2163 1 1.3705623542379374e+01 1.4011638224552522e+01 2.2245732773752218e+00 0 0 0
2164 2 1.4149336063020732e+01 1.2662679966447834e+01 5.0249491882844266e+00 0 0 0
2165 1 1.4162530807961904e+01 1.2349456986520618e+01 5.9452615776218298e+00 0 0 0
2166 1 1.4218598800229634e+01 1.3633944893758917e+01 5.0642052392586407e+00 0 0 0
2167 2 1.4299629384528846e+01 1.5473812255250774e+01 5.0764042971102468e+00 0 0 0
2173 2 1.5521138808739448e+01 1.4151802920904041e+01 2.1124210116297446e+00 0 0 0
2191 2 1.2804119386595715e+01 1.4029345938590110e+01 7.9798334727649518e+00 0 0 0
2193 1 1.2408914774380136e+01 1.4792458196693248e+01 7.5267795509989375e+00 0 0 0
2203 2 1.5572844229531658e+01 1.3974018138444103e+01 8.0078381747830800e+00 0 0 0
60 1 6.4224249661334882e+00 4.7687379482780345e+00 8.7182800759954358e+00 0 0 0
1959 1 1.4331713220131428e+01 3.2472464496350084e+00 7.7538482395109021e-02 0 0 1
1058 1 7.8987948789578635e+00 3.3876869864363215e+00 3.6346391825166614e-02 0 0 1
3659 1 2.0787465953908041e-01 4.8123174679895060e+00 8.8266923155709982e+00 1 0 0
34 2 1.6267973371689635e+00 2.0771165562788921e-01 1.0940823753575641e+01 0 0 0
37 2 1.6551805619892215e+00 3.0103659695485430e+00 1.1046385224216611e+01 0 0 0
38 1 1.5849042577055312e+00 2.0384076395677999e+00 1.0995398085971750e+01 0 0 0
39 1 8.8346078061769195e-01 3.3878753078888590e+00 1.0589678988656901e+01 0 0 0
46 2 3.2539977246009406e+00 4.8405675262059829e+00 9.5281280015814698e+00 0 0 0
47 1 2.9393107055733720e+00 4.0723596509678561e+00 1.0033297488272035e+01 0 0 0
48 1 4.2308032231054762e+00 4.8165347640080745e+00 9.5586539054433537e+00 0 0 0
49 2 4.8282955072860156e+00 1.6296300384277362e+00 1.0233280596356668e+01 0 0 0
50 1 4.0543206385806112e+00 1.5919408118664800e+00 9.6441094145583026e+00 0 0 0
51 1 4.7502207852595140e+00 8.8389944112286067e-01 1.0851799448001765e+01 0 0 0
58 2 6.0152842938350037e+00 4.8366836394801558e+00 9.6022171263451721e+00 0 0 0
59 1 6.4074701855407437e+00 4.0926912590783822e+00 1.0093601799582276e+01 0 0 0
1847 1 1.5382021610830002e+01 4.6908138984668524e+00 8.8282237538907111e+00 0 0 0
61 2 9.6270972435217012e-02 1.6455635454430508e+00 1.3931048855658450e+01 0 0 0
62 1 1.0694716453809905e+00 1.5993942275550972e+00 1.3882130225117008e+01 0 0 0
64 2 1.4971339444478702e+00 9.0497908103723268e-02 1.6696952882357991e+01 0 0 0
65 1 1.5110393000439581e+00 1.0609434053636120e+00 1.6793264532043978e+01 0 0 0
67 2 1.5422995457813706e+00 2.8814956704207551e+00 1.6979100718057722e+01 0 0 0
68 1 2.3303424577268523e+00 3.2149115042900682e+00 1.6516130391093967e+01 0 0 0
69 1 8.2403801753490435e-01 3.3457956559435309e+00 1.6510579538202428e+01 0 0 0
70 2 1.5979990399079436e+00 4.6926247302473998e+00 1.3290672545849002e+01 0 0 0
71 1 1.6151194899187609e+00 3.9522069396809449e+00 1.2657421454670340e+01 0 0 0
72 1 1.6104120969330507e+00 5.4615293702980541e+00 1.2696511522049878e+01 0 0 0
73 2 2.8835708354839320e+00 1.4791877653026511e+00 1.3815662631601061e+01 0 0 0
74 1 3.2796106893391865e+00 1.4824955198482552e+00 1.4703523280385079e+01 0 0 0
75 1 3.3541146181618302e+00 2.2057824792347787e+00 1.3367628108077065e+01 0 0 0
76 2 3.3476342794807099e+00 4.5589865532681255e+00 1.5477281782499043e+01 0 0 0
77 1 2.8709327049815716e+00 4.5838496304714331e+00 1.4625437994426431e+01 0 0 0
78 1 2.9856717651695699e+00 5.3219645265287809e+00 1.5958219862960528e+01 0 0 0
79 2 4.6034693934131461e+00 1.6589526779773258e+00 1.6123315117597688e+01 0 0 0
80 1 4.6574791529075625e+00 9.0550833358811167e-01 1.6737043151336604e+01 0 0 0
81 1 5.3420282197869815e+00 1.5577107619650463e+00 1.5494752201361127e+01 0 0 0
82 2 4.7260267334445558e+00 3.2286539960454870e+00 1.2611676930447526e+01 0 0 0
83 1 4.7510693507724087e+00 2.9069846898351317e+00 1.1696185856277365e+01 0 0 0
84 1 4.6978774377117638e+00 4.2017632468843571e+00 1.2565115396201332e+01 0 0 0
85 2 4.6760910228323125e+00 6.0416406303356895e+00 1.2468728902547360e+01 0 0 0
86 1 3.8993489522111808e+00 6.3947906138728392e+00 1.2935299885044357e+01 0 0 0
87 1 5.4089429081024738e+00 6.4373567042216653e+00 1.2977138103247508e+01 0 0 0
88 2 6.1290513949827172e+00 4.5420097836946018e+00 1.5364797110867670e+01 0 0 0
89 1 5.1527678000233132e+00 4.5354017272632348e+00 1.5385658675356252e+01 0 0 0
90 1 6.4135988749606883e+00 5.3045706102940882e+00 1.5895595898949033e+01 0 0 0
113 1 4.7695842033693898e+00 2.9875579152336864e+00 1.7526860384043342e+01 0 0 0
214 2 1.6056072409990010e+00 6.5077177457984670e+00 1.1098106115588759e+01 0 0 0
215 1 2.3427044738611889e+00 6.1149342725390454e+00 1.0596017183598008e+01 0 0 0
216 1 8.3762734205774947e-01 6.0883046850773042e+00 1.0666584496751078e+01 0 0 0
217 2 1.5751619249727389e+00 9.3034657013296425e+00 1.0817470142538992e+01 0 0 0
218 1 1.6028987420836893e+00 8.3335896283563091e+00 1.0907233674140647e+01 0 0 0
219 1 1.5732964580945872e+00 9.6649451589878144e+00 1.1719792112779510e+01 0 0 0
226 2 3.4006508705776111e+00 1.1082740524796939e+01 9.5384264706566420e+00 0 0 0
227 1 2.9593340327907582e+00 1.0333709235896119e+01 9.9775418152881166e+00 0 0 0
229 2 4.5966564358035216e+00 7.8580314049732891e+00 1.0295104042193396e+01 0 0 0
230 1 4.6556145636847974e+00 7.1006580659898120e+00 1.0903550787260176e+01 0 0 0
231 1 5.3933678947638306e+00 7.8109209315652643e+00 9.7411006720805133e+00 0 0 0
238 2 6.1749631905515212e+00 1.1167616424745844e+01 9.4485346337041598e+00 0 0 0
239 1 5.2005951961220287e+00 1.1101055941512575e+01 9.4741830795532831e+00 0 0 0
240 1 6.5364613004127285e+00 1.0383707886351749e+01 9.8967208251000933e+00 0 0 0
241 2 6.7377738090990541e-02 7.9815344409942037e+00 1.3980622365585386e+01 0 0 0
242 1 1.0422530417646021e+00 7.9195287648841521e+00 1.3976325675836023e+01 0 0 0
244 2 1.6495198583755359e+00 6.4974664799986241e+00 1.6832409003333261e+01 0 0 0
246 1 9.2507761815178258e-01 6.0308714783178932e+00 1.6373964497151544e+01 0 0 0
247 2 1.4804015289651173e+00 9.3159936449375316e+00 1.6650483642896294e+01 0 0 0
248 1 1.5430258588392671e+00 8.3480788583995604e+00 1.6740149641548864e+01 0 0 0
2028 1 1.5499167459807683e+01 1.1126190904836866e+01 8.7702141842653649e+00 0 0 0
250 2 1.6132548762469565e+00 1.0931743320293389e+01 1.3124711542233676e+01 0 0 0
251 1 1.5563063397055721e+00 1.1706304024075976e+01 1.2535360501339817e+01 0 0 0
252 1 8.3901433181043561e-01 1.0970365767345212e+01 1.3712145370004297e+01 0 0 0
253 2 2.8323468290015699e+00 7.7078691713786629e+00 1.3931222288705136e+01 0 0 0
254 1 3.2275802970731862e+00 7.7050048366702795e+00 1.4820472596267173e+01 0 0 0
255 1 3.2885620927237134e+00 8.4434446949321291e+00 1.3480813759786406e+01 0 0 0
256 2 3.2948210993112066e+00 1.1072869197452821e+01 1.5355944045770572e+01 0 0 0
257 1 2.8659415088132487e+00 1.0328706728656334e+01 1.5815535862926165e+01 0 0 0
258 1 2.8657944222879901e+00 1.1062529758557147e+01 1.4479678405055104e+01 0 0 0
259 2 4.5610180102084508e+00 7.8642601685351243e+00 1.6216709715779654e+01 0 0 0
260 1 4.6602645322610963e+00 7.1481003823935438e+00 1.6872165905420999e+01 0 0 0
261 1 5.3423962224560189e+00 7.8184807109804240e+00 1.5640377977673607e+01 0 0 0
262 2 4.6280810778898420e+00 9.4723078925109583e+00 1.2647272027763616e+01 0 0 0
263 1 4.6110219288580092e+00 9.1439772839376676e+00 1.1733778954842196e+01 0 0 0
264 1 4.6239265717053000e+00 1.0446630703561533e+01 1.2605845961062675e+01 0 0 0
265 2 4.7319350127832145e+00 1.2275159863342978e+01 1.2561025628208053e+01 0 0 0
266 1 4.6876711922163139e+00 1.2671667576828218e+01 1.1673706127912602e+01 0 0 0
267 1 3.9925853617445206e+00 1.2702610474892765e+01 1.3028320806138071e+01 0 0 0
268 2 6.0936453828603225e+00 1.1095327188714855e+01 1.5337858117981488e+01 0 0 0
269 1 5.1184322612749282e+00 1.1053757235724463e+01 1.5330524183634564e+01 0 0 0
270 1 6.3977010099904019e+00 1.0333733452492538e+01 1.5856474483394267e+01 0 0 0
293 1 4.5290475427660821e+00 9.1868515866798521e+00 1.7546143984663555e+01 0 0 0
394 2 1.4999518418037179e+00 1.2725275691487852e+01 1.0975566486159467e+01 0 0 0
395 1 2.2812555008859365e+00 1.2418737044329820e+01 1.0488870047120196e+01 0 0 0
396 1 1.5560345943329630e+00 1.3699401508910414e+01 1.0983246032232655e+01 0 0 0